----- GAMESS execution script 'rungms' -----
This job is running on host chemcompute-node-0.novalocal
under operating system Linux at Sat Nov 13 14:35:57 UTC 2021
SLURM has assigned the following compute nodes to this run:
chemcompute-node-0
Available scratch disk space (Kbyte units) at beginning of the job is
Filesystem     1K-blocks     Used Available Use% Mounted on
/dev/sda1       62903276 21348544  41554732  34% /
GAMESS temporary binary files will be written to /scratch/305961
GAMESS supplementary output files will be written to /data/slurm/341862
Copying input file 341862.inp to your run's scratch directory...
The generated host list is
chemcompute-node-0.novalocal

 Distributed Data Interface kickoff program.
 Initiating 1 compute processes on 1 nodes to run the following command:
 /data/gamess-2019R1-ddi/gamess.00.x 341862 

          ******************************************************
          *         GAMESS VERSION = 30 JUN 2019 (R1)          *
          *             FROM IOWA STATE UNIVERSITY             *
          * M.W.SCHMIDT, K.K.BALDRIDGE, J.A.BOATZ, S.T.ELBERT, *
          *   M.S.GORDON, J.H.JENSEN, S.KOSEKI, N.MATSUNAGA,   *
          *          K.A.NGUYEN, S.J.SU, T.L.WINDUS,           *
          *       TOGETHER WITH M.DUPUIS, J.A.MONTGOMERY       *
          *         J.COMPUT.CHEM.  14, 1347-1363(1993)        *
          **************** 64 BIT LINUX VERSION ****************

  SINCE 1993, STUDENTS AND POSTDOCS WORKING AT IOWA STATE UNIVERSITY
  AND ALSO IN THEIR VARIOUS JOBS AFTER LEAVING ISU HAVE MADE IMPORTANT
  CONTRIBUTIONS TO THE CODE:
     IVANA ADAMOVIC, CHRISTINE AIKENS, YURI ALEXEEV, POOJA ARORA,
     ANDREY ASADCHEV, ROB BELL, PRADIPTA BANDYOPADHYAY, JONATHAN BENTZ,
     COLLEEN BERTONI, BRETT BODE, KURT BRORSEN, CALEB CARLIN, GALINA CHABAN,
     WEI CHEN, CHEOL HO CHOI, PAUL DAY, ALBERT DEFUSCO, NUWAN DESILVA,
     TIM DUDLEY, DMITRI FEDOROV, ALEX FINDLATER, GRAHAM FLETCHER, 
     MARK FREITAG, KURT GLAESEMANN, ANASTASIA GUNINA,
     DAN KEMP, GRANT MERRILL, NORIYUKI MINEZAWA, JONATHAN MULLIN,
     TAKESHI NAGATA, SEAN NEDD, HEATHER NETZLOFF, BOSILJKA NJEGIC, RYAN OLSON,
     MIKE PAK, BUU PHAM,
     SPENCER PRUITT, LUKE ROSKOP, JIM SHOEMAKER, LYUDMILA SLIPCHENKO,
     TONY SMITH, SAROM SOK LEANG, JIE SONG, TETSUYA TAKETSUGU, SIMON WEBB,
     PENG XU, SOOHAENG YOO, FEDERICO ZAHARIEV

  ADDITIONAL CODE HAS BEEN PROVIDED BY COLLABORATORS IN OTHER GROUPS:
     IOWA STATE UNIVERSITY:
          JOE IVANIC, AARON WEST, LAIMUTIS BYTAUTAS, KLAUS RUEDENBERG
     UNIVERSITY OF TOKYO: KIMIHIKO HIRAO, TAKAHITO NAKAJIMA,
          TAKAO TSUNEDA, MUNEAKI KAMIYA, SUSUMU YANAGISAWA,
          KIYOSHI YAGI, MAHITO CHIBA, SEIKEN TOKURA, NAOAKI KAWAKAMI
     UNIVERSITY OF AARHUS: FRANK JENSEN
     UNIVERSITY OF IOWA: VISVALDAS KAIRYS, HUI LI
     NATIONAL INST. OF STANDARDS AND TECHNOLOGY: WALT STEVENS, DAVID GARMER
     UNIVERSITY OF PISA: BENEDETTA MENNUCCI, JACOPO TOMASI
     UNIVERSITY OF MEMPHIS: HENRY KURTZ, PRAKASHAN KORAMBATH
     UNIVERSITY OF ALBERTA: TOBY ZENG, MARIUSZ KLOBUKOWSKI
     UNIVERSITY OF NEW ENGLAND: MARK SPACKMAN
     MIE UNIVERSITY: HIROAKI UMEDA
     NAT. INST. OF ADVANCED INDUSTRIAL SCIENCE AND TECHNOLOGY: KAZUO KITAURA
     MICHIGAN STATE UNIVERSITY:
          KAROL KOWALSKI, MARTA WLOCH, JEFFREY GOUR, JESSE LUTZ,
          WEI LI, JUN SHEN, J. EMILIANO DEUSTUA, PIOTR PIECUCH
     UNIVERSITY OF MINNESOTA:
          YINAN SHU
     UNIVERSITY OF SILESIA: MONIKA MUSIAL, STANISLAW KUCHARSKI
     FACULTES UNIVERSITAIRES NOTRE-DAME DE LA PAIX:
          OLIVIER QUINET, BENOIT CHAMPAGNE
     UNIVERSITY OF CALIFORNIA - SANTA BARBARA: BERNARD KIRTMAN
     INSTITUTE FOR MOLECULAR SCIENCE:
          KAZUYA ISHIMURA, MICHIO KATOUDA, AND SHIGERU NAGASE
     UNIVERSITY OF NOTRE DAME: ANNA POMOGAEVA, DAN CHIPMAN
     KYUSHU UNIVERSITY:
          HARUYUKI NAKANO,
          FENG LONG GU, JACEK KORCHOWIEC, MARCIN MAKOWSKI, AND YURIKO AOKI,
          HIROTOSHI MORI AND EISAKU MIYOSHI
     PENNSYLVANIA STATE UNIVERSITY:
          TZVETELIN IORDANOV, CHET SWALINA, JONATHAN SKONE,
          SHARON HAMMES-SCHIFFER
     WASEDA UNIVERSITY:
          MASATO KOBAYASHI, TOMOKO AKAMA, TSUGUKI TOUMA,
          TAKESHI YOSHIKAWA, YASUHIRO IKABATA, JUNJI SEINO,
          YUYA NAKAJIMA, HIROMI NAKAI
     NANJING UNIVERSITY: SHUHUA LI
     UNIVERSITY OF NEBRASKA:
          PEIFENG SU, DEJUN SI, NANDUN THELLAMUREGE, YALI WANG, HUI LI
     UNIVERSITY OF ZURICH: ROBERTO PEVERATI, KIM BALDRIDGE
     N. COPERNICUS UNIVERSITY AND JACKSON STATE UNIVERSITY:
          MARIA BARYSZ
     UNIVERSITY OF COPENHAGEN: Jimmy Kromann, CASPER STEINMANN
     TOKYO INSTITUTE OF TECHNOLOGY: HIROYA NAKATA
     NAGOYA UNIVERSITY: YOSHIO NISHIMOTO, STEPHAN IRLE
     MOSCOW STATE UNIVERSITY: VLADIMIR MIRONOV
     A.N.NESMEYANOV INSTITUTE OF ORGANOELEMENT COMPOUNDS OF RUSSIAN ACADEMY OF SCIENCES:
          IGOR S. GERASIMOV

 EXECUTION OF GAMESS BEGUN Sat Nov 13 14:35:57 2021

            ECHO OF THE FIRST FEW INPUT CARDS -
 INPUT CARD>!File created by the GAMESS Input Deck Generator Plugin for Avogadro            
 INPUT CARD> $BASIS GBASIS=STO NGAUSS=3 $END                                                
 INPUT CARD> $CONTRL SCFTYP=RHF RUNTYP=SADPOINT NZVAR=1 mult=1  ICHARG=0 $END               
 INPUT CARD> $STATPT hssend=.t. OPTTOL=0.0005 NSTEP=50 $END                                 
 INPUT CARD> $STATPT HESS=calc ihrep=5 $END                                                 
 INPUT CARD> $FORCE nvib=2 $END                                                             
 INPUT CARD> $ZMAT DLC=.t. auto=.t. nonvdw(1)=6,17,4,18,17,18,4,6 $END                      
 INPUT CARD>!$ZMAT IFZMAT(1)=1,6,17,1,4,18,1,17,18 fvalue(1)=2.08,2.01,1.98 $END            
 INPUT CARD>                                                                                
 INPUT CARD> $DATA                                                                          
 INPUT CARD>Title                                                                           
 INPUT CARD>C1                                                                              
 INPUT CARD>C     6.0    -0.37073606     1.24233532    -0.38687748                          
 INPUT CARD>C     6.0    -1.15242612     0.01453094     0.15299785                          
 INPUT CARD>C     6.0    -0.07511962    -0.96343976     0.69155121                          
 INPUT CARD>C     6.0     1.22753525    -0.57146782    -0.06247969                          
 INPUT CARD>C     6.0     2.07080984    -1.65449393    -0.75491792                          
 INPUT CARD>C     6.0     1.02529097     0.68692535    -0.67302835                          
 INPUT CARD>H     1.0     1.58697307     0.98546094    -1.54600775                          
 INPUT CARD>H     1.0    -0.35804865     2.05089974     0.34206614                          
 INPUT CARD>H     1.0    -0.82234758     1.63311160    -1.29657602                          
 INPUT CARD>H     1.0    -1.69716287    -0.45618111    -0.66204137                          
 INPUT CARD>H     1.0    -1.87203145     0.28486091     0.92113906                          
 INPUT CARD>H     1.0    -0.32686415    -2.00217605     0.49003205                          
 INPUT CARD>H     1.0     0.04505508    -0.85359681     1.76515186                          
 INPUT CARD>H     1.0     2.22070169    -2.51287913    -0.10846695                          
 INPUT CARD>H     1.0     3.03921533    -1.25914955    -1.04600418                          
 INPUT CARD>H     1.0     1.54780078    -1.97872794    -1.65347707                          
 INPUT CARD>B     5.0     2.33292937     0.92877239     0.92634404                          
 INPUT CARD>H     1.0     2.34354115    -0.94467092     1.56704485                          
 INPUT CARD>H     1.0     1.74518716     1.50973761     1.72991014                          
 INPUT CARD>H     1.0     3.37380600     1.11303031     0.46624446                          
 INPUT CARD> $END                                                                           
    1000000 WORDS OF MEMORY AVAILABLE

     BASIS OPTIONS
     -------------
     GBASIS=STO          IGAUSS=       3      POLAR=NONE    
     NDFUNC=       0     NFFUNC=       0     DIFFSP=       F
     NPFUNC=       0      DIFFS=       F     BASNAM=        


     RUN TITLE
     ---------
 Title                                                                           

 THE POINT GROUP OF THE MOLECULE IS C1      
 THE ORDER OF THE PRINCIPAL AXIS IS     0

 ATOM      ATOMIC                      COORDINATES (BOHR)
           CHARGE         X                   Y                   Z
 C           6.0    -0.7005895672        2.3476733397       -0.7310924280
 C           6.0    -2.1777695879        0.0274594949        0.2891240132
 C           6.0    -0.1419554981       -1.8206371521        1.3068422934
 C           6.0     2.3197052628       -1.0799175906       -0.1180694939
 C           6.0     3.9132631703       -3.1265401760       -1.4265880120
 C           6.0     1.9375189910        1.2981006855       -1.2718391635
 H           1.0     2.9989442522        1.8622511482       -2.9215310224
 H           1.0    -0.6766138388        3.8756385369        0.6464112743
 H           1.0    -1.5540115929        3.0861334314       -2.4501734001
 H           1.0    -3.2071727808       -0.8620572987       -1.2510767818
 H           1.0    -3.5376264809        0.5383090645        1.7407004200
 H           1.0    -0.6176836787       -3.7835641137        0.9260262997
 H           1.0     0.0851417556       -1.6130640749        3.3356533421
 H           1.0     4.1965176946       -4.7486529960       -0.2049728142
 H           1.0     5.7432841914       -2.3794476271       -1.9766612822
 H           1.0     2.9249193578       -3.7392536108       -3.1246185893
 B           5.0     4.4085972580        1.7551253221        1.7505364060
 H           1.0     4.4286506145       -1.7851691874        2.9612853770
 H           1.0     3.2979255297        2.8529903963        3.2690561480
 H           1.0     6.3755688757        2.1033223019        0.8810742727

          INTERNUCLEAR DISTANCES (ANGS.)
          ------------------------------

                1 C          2 C          3 C          4 C          5 C     

   1 C       0.0000000    1.5524201 *  2.4730227 *  2.4391775 *  3.8063394  
   2 C       1.5524201 *  0.0000000    1.5514689 *  2.4604961 *  3.7415512  
   3 C       2.4730227 *  1.5514689 *  0.0000000    1.5553502 *  2.6785896 *
   4 C       2.4391775 *  2.4604961 *  1.5553502 *  0.0000000    1.5373771 *
   5 C       3.8063394    3.7415512    2.6785896 *  1.5373771 *  0.0000000  
   6 C       1.5294620 *  2.4242288 *  2.4076308 *  1.4132324 *  2.5655525 *
   7 H       2.2895835 *  3.3665462    3.4010934    2.1803849 *  2.7980856 *
   8 H       1.0887131 *  2.1939873 *  3.0476928    3.0910427    4.5642820  
   9 H       1.0882144 *  2.1977306 *  3.3545608    3.2534879    4.4127206  
  10 H       2.1725748 *  1.0874727 *  2.1726823 *  2.9877457 *  3.9550219  
  11 H       2.2094235 *  1.0867157 *  2.1999676 *  3.3627546    4.7027930  
  12 H       3.3612124    2.2050514 *  1.0876389 *  2.1836558 *  2.7238986 *
  13 H       3.0326629    2.1878408 *  1.0858756 *  2.1950155 *  3.3310464  
  14 H       4.5710718    4.2230506    2.8829823 *  2.1811860 *  1.0849846 *
  15 H       4.2801452    4.5419958    3.5784948    2.1731110 *  1.0857429 *
  16 H       3.9573105    3.8115165    3.0271832    2.1480744 *  1.0890706 *
  17 B       3.0220323    3.6853229    3.0715297    2.1095946 *  3.0933175  
  18 H       3.9960117    3.8911932    2.5723066 *  2.0100000 *  2.4433056 *
  19 H       3.0049001    3.6219412    3.2416527    2.7950028 *  4.0364293  
  20 H       3.8426725    4.6681475    4.0320688    2.7791296 *  3.2936647  

                6 C          7 H          8 H          9 H         10 H     

   1 C       1.5294620 *  2.2895835 *  1.0887131 *  1.0882144 *  2.1725748 *
   2 C       2.4242288 *  3.3665462    2.1939873 *  2.1977306 *  1.0874727 *
   3 C       2.4076308 *  3.4010934    3.0476928    3.3545608    2.1726823 *
   4 C       1.4132324 *  2.1803849 *  3.0910427    3.2534879    2.9877457 *
   5 C       2.5655525 *  2.7980856 *  4.5642820    4.4127206    3.9550219  
   6 C       0.0000000    1.0801404 *  2.1919105 *  2.1674520 *  2.9527221 *
   7 H       1.0801404 *  0.0000000    2.9125749 *  2.5072881 *  3.6939514  
   8 H       2.1919105 *  2.9125749 *  0.0000000    1.7536444 *  3.0144507  
   9 H       2.1674520 *  2.5072881 *  1.7536444 *  0.0000000    2.3522500 *
  10 H       2.9527221 *  3.6939514    3.0144507    2.3522500 *  0.0000000  
  11 H       3.3312915    4.3060848    2.3971572 *  2.7996207 *  1.7567534 *
  12 H       3.2268095    4.0907464    4.0558957    4.0807828    2.3653947 *
  13 H       3.0461112    4.0894281    3.2594119    4.0385992    3.0140553  
  14 H       3.4621504    3.8349079    5.2612747    5.2783512    4.4593849  
  15 H       2.8252805 *  2.7197955 *  4.9421218    4.8311105    4.8192805  
  16 H       2.8879064 *  2.9663951 *  4.8838872    4.3347856    3.7189895  
  17 B       2.0800001 *  2.5830578 *  2.9735355 *  3.9234220    4.5478245  
  18 H       3.0688463    3.7401739    4.2157566    4.9867964    4.6405535  
  19 H       2.6399591 *  3.3213756    2.5773180 *  3.9707775    4.6299074  
  20 H       2.6448121 *  2.6941056 *  3.8499037    4.5810180    5.4268019  

               11 H         12 H         13 H         14 H         15 H     

   1 C       2.2094235 *  3.3612124    3.0326629    4.5710718    4.2801452  
   2 C       1.0867157 *  2.2050514 *  2.1878408 *  4.2230506    4.5419958  
   3 C       2.1999676 *  1.0876389 *  1.0858756 *  2.8829823 *  3.5784948  
   4 C       3.3627546    2.1836558 *  2.1950155 *  2.1811860 *  2.1731110 *
   5 C       4.7027930    2.7238986 *  3.3310464    1.0849846 *  1.0857429 *
   6 C       3.3312915    3.2268095    3.0461112    3.4621504    2.8252805 *
   7 H       4.3060848    4.0907464    4.0894281    3.8349079    2.7197955 *
   8 H       2.3971572 *  4.0558957    3.2594119    5.2612747    4.9421218  
   9 H       2.7996207 *  4.0807828    4.0385992    5.2783512    4.8311105  
  10 H       1.7567534 *  2.3653947 *  3.0140553    4.4593849    4.8192805  
  11 H       0.0000000    2.7935521 *  2.3840437 *  5.0633884    5.5112581  
  12 H       2.7935521 *  0.0000000    1.7559865 *  2.6662915 *  3.7738557  
  13 H       2.3840437 *  1.7559865 *  0.0000000    3.3161881    4.1269925  
  14 H       5.0633884    2.6662915 *  3.3161881    0.0000000    1.7665725 *
  15 H       5.5112581    3.7738557    4.1269925    1.7665725 *  0.0000000  
  16 H       4.8422862    2.8477271 *  3.9001524    1.7678149 *  1.7638406 *
  17 B       4.2539799    3.9818750    3.0190739    3.5956076    3.0291913  
  18 H       4.4384677    3.0674644    2.3088047 *  2.2981963 *  2.7222940 *
  19 H       3.9036783    4.2619516    2.9115358 *  4.4482794    4.1287947  
  20 H       5.3302537    4.8373584    4.0786475    3.8480075    2.8330344 *

               16 H         17 B         18 H         19 H         20 H     

   1 C       3.9573105    3.0220323    3.9960117    3.0049001    3.8426725  
   2 C       3.8115165    3.6853229    3.8911932    3.6219412    4.6681475  
   3 C       3.0271832    3.0715297    2.5723066 *  3.2416527    4.0320688  
   4 C       2.1480744 *  2.1095946 *  2.0100000 *  2.7950028 *  2.7791296 *
   5 C       1.0890706 *  3.0933175    2.4433056 *  4.0364293    3.2936647  
   6 C       2.8879064 *  2.0800001 *  3.0688463    2.6399591 *  2.6448121 *
   7 H       2.9663951 *  2.5830578 *  3.7401739    3.3213756    2.6941056 *
   8 H       4.8838872    2.9735355 *  4.2157566    2.5773180 *  3.8499037  
   9 H       4.3347856    3.9234220    4.9867964    3.9707775    4.5810180  
  10 H       3.7189895    4.5478245    4.6405535    4.6299074    5.4268019  
  11 H       4.8422862    4.2539799    4.4384677    3.9036783    5.3302537  
  12 H       2.8477271 *  3.9818750    3.0674644    4.2619516    4.8373584  
  13 H       3.9001524    3.0190739    2.3088047 *  2.9115358 *  4.0786475  
  14 H       1.7678149 *  3.5956076    2.2981963 *  4.4482794    3.8480075  
  15 H       1.7638406 *  3.0291913    2.7222940 *  4.1287947    2.8330344 *
  16 H       0.0000000    3.9655343    3.4748004    4.8637087    4.1697102  
  17 B       3.9655343    0.0000000    1.9800000 *  1.1526838 *  1.1528516 *
  18 H       3.4748004    1.9800000 *  0.0000000    2.5315359 *  2.5509491 *
  19 H       4.8637087    1.1526838 *  2.5315359 *  0.0000000    2.0991967 *
  20 H       4.1697102    1.1528516 *  2.5509491 *  2.0991967 *  0.0000000  

  * ... LESS THAN  3.000


     ATOMIC BASIS SET
     ----------------
 THE CONTRACTED PRIMITIVE FUNCTIONS HAVE BEEN UNNORMALIZED
 THE CONTRACTED BASIS FUNCTIONS ARE NOW NORMALIZED TO UNITY

  SHELL TYPE  PRIMITIVE        EXPONENT          CONTRACTION COEFFICIENT(S)

 C         

      1   S       1            71.6168373    0.154328967295
      1   S       2            13.0450963    0.535328142282
      1   S       3             3.5305122    0.444634542185

      2   L       4             2.9412494   -0.099967229187    0.155916274999
      2   L       5             0.6834831    0.399512826089    0.607683718598
      2   L       6             0.2222899    0.700115468880    0.391957393099

 C         

      3   S       7            71.6168373    0.154328967295
      3   S       8            13.0450963    0.535328142282
      3   S       9             3.5305122    0.444634542185

      4   L      10             2.9412494   -0.099967229187    0.155916274999
      4   L      11             0.6834831    0.399512826089    0.607683718598
      4   L      12             0.2222899    0.700115468880    0.391957393099

 C         

      5   S      13            71.6168373    0.154328967295
      5   S      14            13.0450963    0.535328142282
      5   S      15             3.5305122    0.444634542185

      6   L      16             2.9412494   -0.099967229187    0.155916274999
      6   L      17             0.6834831    0.399512826089    0.607683718598
      6   L      18             0.2222899    0.700115468880    0.391957393099

 C         

      7   S      19            71.6168373    0.154328967295
      7   S      20            13.0450963    0.535328142282
      7   S      21             3.5305122    0.444634542185

      8   L      22             2.9412494   -0.099967229187    0.155916274999
      8   L      23             0.6834831    0.399512826089    0.607683718598
      8   L      24             0.2222899    0.700115468880    0.391957393099

 C         

      9   S      25            71.6168373    0.154328967295
      9   S      26            13.0450963    0.535328142282
      9   S      27             3.5305122    0.444634542185

     10   L      28             2.9412494   -0.099967229187    0.155916274999
     10   L      29             0.6834831    0.399512826089    0.607683718598
     10   L      30             0.2222899    0.700115468880    0.391957393099

 C         

     11   S      31            71.6168373    0.154328967295
     11   S      32            13.0450963    0.535328142282
     11   S      33             3.5305122    0.444634542185

     12   L      34             2.9412494   -0.099967229187    0.155916274999
     12   L      35             0.6834831    0.399512826089    0.607683718598
     12   L      36             0.2222899    0.700115468880    0.391957393099

 H         

     13   S      37             3.4252509    0.154328967295
     13   S      38             0.6239137    0.535328142282
     13   S      39             0.1688554    0.444634542185

 H         

     14   S      40             3.4252509    0.154328967295
     14   S      41             0.6239137    0.535328142282
     14   S      42             0.1688554    0.444634542185

 H         

     15   S      43             3.4252509    0.154328967295
     15   S      44             0.6239137    0.535328142282
     15   S      45             0.1688554    0.444634542185

 H         

     16   S      46             3.4252509    0.154328967295
     16   S      47             0.6239137    0.535328142282
     16   S      48             0.1688554    0.444634542185

 H         

     17   S      49             3.4252509    0.154328967295
     17   S      50             0.6239137    0.535328142282
     17   S      51             0.1688554    0.444634542185

 H         

     18   S      52             3.4252509    0.154328967295
     18   S      53             0.6239137    0.535328142282
     18   S      54             0.1688554    0.444634542185

 H         

     19   S      55             3.4252509    0.154328967295
     19   S      56             0.6239137    0.535328142282
     19   S      57             0.1688554    0.444634542185

 H         

     20   S      58             3.4252509    0.154328967295
     20   S      59             0.6239137    0.535328142282
     20   S      60             0.1688554    0.444634542185

 H         

     21   S      61             3.4252509    0.154328967295
     21   S      62             0.6239137    0.535328142282
     21   S      63             0.1688554    0.444634542185

 H         

     22   S      64             3.4252509    0.154328967295
     22   S      65             0.6239137    0.535328142282
     22   S      66             0.1688554    0.444634542185

 B         

     23   S      67            48.7911132    0.154328967295
     23   S      68             8.8873622    0.535328142282
     23   S      69             2.4052670    0.444634542185

     24   L      70             2.2369561   -0.099967229187    0.155916274999
     24   L      71             0.5198205    0.399512826089    0.607683718598
     24   L      72             0.1690618    0.700115468880    0.391957393099

 H         

     25   S      73             3.4252509    0.154328967295
     25   S      74             0.6239137    0.535328142282
     25   S      75             0.1688554    0.444634542185

 H         

     26   S      76             3.4252509    0.154328967295
     26   S      77             0.6239137    0.535328142282
     26   S      78             0.1688554    0.444634542185

 H         

     27   S      79             3.4252509    0.154328967295
     27   S      80             0.6239137    0.535328142282
     27   S      81             0.1688554    0.444634542185

 TOTAL NUMBER OF BASIS SET SHELLS             =   27
 NUMBER OF CARTESIAN GAUSSIAN BASIS FUNCTIONS =   48
 NUMBER OF ELECTRONS                          =   54
 CHARGE OF MOLECULE                           =    0
 SPIN MULTIPLICITY                            =    1
 NUMBER OF OCCUPIED ORBITALS (ALPHA)          =   27
 NUMBER OF OCCUPIED ORBITALS (BETA )          =   27
 TOTAL NUMBER OF ATOMS                        =   20
 THE NUCLEAR REPULSION ENERGY IS      303.0522770700

     $CONTRL OPTIONS
     ---------------
 SCFTYP=RHF          RUNTYP=SADPOINT     EXETYP=RUN     
 MPLEVL=       0     CITYP =NONE         CCTYP =NONE         VBTYP =NONE    
 DFTTYP=NONE         TDDFT =NONE    
 MULT  =       1     ICHARG=       0     NZVAR =       1     COORD =UNIQUE  
 PP    =NONE         RELWFN=NONE         LOCAL =NONE         NUMGRD=       F
 ISPHER=      -1     NOSYM =       0     MAXIT =      30     UNITS =ANGS    
 PLTORB=       F     MOLPLT=       F     AIMPAC=       F     FRIEND=        
 NPRINT=       7     IREST =       0     GEOM  =INPUT   
 NORMF =       0     NORMP =       0     ITOL  =      20     ICUT  =       9
 INTTYP=BEST         GRDTYP=BEST         QMTTOL= 1.0E-06

     $SYSTEM OPTIONS
     ---------------
  REPLICATED MEMORY=     1000000 WORDS (ON EVERY NODE).
 DISTRIBUTED MEMDDI=           0 MILLION WORDS IN AGGREGATE,
 MEMDDI DISTRIBUTED OVER   1 PROCESSORS IS           0 WORDS/PROCESSOR.
 TOTAL MEMORY REQUESTED ON EACH PROCESSOR=     1000000 WORDS.
 TIMLIM=      525600.00 MINUTES, OR     365.0 DAYS.
 PARALL= F  BALTYP=  DLB     KDIAG=    0  COREFL= F
 MXSEQ2=     300 MXSEQ3=     150  mem10=         0

          ----------------
          PROPERTIES INPUT
          ----------------

     MOMENTS            FIELD           POTENTIAL          DENSITY
 IEMOM =       1   IEFLD =       0   IEPOT =       0   IEDEN =       0
 WHERE =COMASS     WHERE =NUCLEI     WHERE =NUCLEI     WHERE =NUCLEI  
 OUTPUT=BOTH       OUTPUT=BOTH       OUTPUT=BOTH       OUTPUT=BOTH    
 IEMINT=       0   IEFINT=       0                     IEDINT=       0
                                                       MORB  =       0
          EXTRAPOLATION IN EFFECT
          SOSCF IN EFFECT
 ORBITAL PRINTING OPTION: NPREO=     1    48     2     1

     -------------------------------
     INTEGRAL TRANSFORMATION OPTIONS
     -------------------------------
     NWORD  =            0
     CUTOFF = 1.0E-09     MPTRAN =       0
     DIRTRF =       F     AOINTS =DUP     

          ----------------------
          INTEGRAL INPUT OPTIONS
          ----------------------
 NOPK  =       1 NORDER=       0 SCHWRZ=       T


 -----------------------------------------------
  STATISTICS ON AUTOMATIC COORDINATE GENERATION 
 -----------------------------------------------
  NUMBER OF USER SPECIFIED BONDS                             4
  NUMBER OF BONDS                                           22
  NUMBER OF ANGLES                                          49
  NUMBER OF TORSIONS                                        69
  NUMBER OF EXTRA COORD.                                     0
  NUMBER OF EXTRA COORD. FOR CONSTRAINTS                     0
  NUMBER OF CONSTRAINED COORD.                               0

  TOTAL NUMBER OF PRIMITIVES                               140
 -----------------------------------------------

   --- ENCODED Z MATRIX ---
 COORD  TYPE   I   J   K   L   M   N
    1      1    1   6
    2      1    1   2
    3      1    1   9
    4      1    1   8
    5      1    2  11
    6      1    2   3
    7      1    2  10
    8      1    3   4
    9      1    3  12
   10      1    3  13
   11      1    4   6
   12      1    4   6
   13      1    4  18
   14      1    4   5
   15      1    5  15
   16      1    5  14
   17      1    5  16
   18      1    6   7
   19      1    6  17
   20      1   17  18
   21      1   17  20
   22      1   17  19
   23      2    1   2   3
   24      2    1   2  11
   25      2    1   6   4
   26      2    1   6   7
   27      2    1   6  17
   28      2    1   2  10
   29      2    1   6   4
   30      2    2   3  13
   31      2    2   1   6
   32      2    2   3  12
   33      2    2   3   4
   34      2    2   1   9
   35      2    2   1   8
   36      2    3   4   6
   37      2    3   2  11
   38      2    3   4   6
   39      2    3   4   5
   40      2    3   4  18
   41      2    3   2  10
   42      2    4   6  17
   43      2    4   6   7
   44      2    4   5  16
   45      2    4   3  13
   46      2    4   3  12
   47      2    4   5  14
   48      2    4   5  15
   49      2    4  18  17
   50      2    4   6  17
   51      2    4   6   7
   52      2    5   4   6
   53      2    5   4  18
   54      2    5   4   6
   55      2    6   4  18
   56      2    6   4  18
   57      2    6   1   8
   58      2    6  17  19
   59      2    6  17  20
   60      2    6  17  18
   61      2    6   1   9
   62      2    7   6  17
   63      2    8   1   9
   64      2   10   2  11
   65      2   12   3  13
   66      2   14   5  16
   67      2   14   5  15
   68      2   15   5  16
   69      2   18  17  19
   70      2   18  17  20
   71      2   19  17  20
   72      3    1   6   4   5
   73      3    1   6   4  18
   74      3    1   6   4   3
   75      3    1   6  17  19
   76      3    1   2   3  13
   77      3    1   6  17  20
   78      3    1   2   3  12
   79      3    1   6  17  18
   80      3    1   2   3   4
   81      3    2   3   4   5
   82      3    2   3   4  18
   83      3    2   3   4   6
   84      3    2   1   6   4
   85      3    2   1   6  17
   86      3    2   1   6   7
   87      3    3   2   1   8
   88      3    3   4  18  17
   89      3    3   2   1   9
   90      3    3   2   1   6
   91      3    3   4   5  16
   92      3    3   4   5  14
   93      3    3   4   5  15
   94      3    3   4   6  17
   95      3    3   4   6   7
   96      3    4  18  17  19
   97      3    4  18  17  20
   98      3    4  18  17   6
   99      3    4   6   1   8
  100      3    4   3   2  10
  101      3    4   3   2  11
  102      3    4   6  17  19
  103      3    4   6  17  20
  104      3    4   6  17  18
  105      3    4   6   1   9
  106      3    5   4  18  17
  107      3    5   4   6   7
  108      3    5   4   6  17
  109      3    5   4   3  13
  110      3    5   4   3  12
  111      3    6   4   3  13
  112      3    6   4   3  12
  113      3    6   4  18  17
  114      3    6   4   5  15
  115      3    6   1   2  11
  116      3    6   4   5  14
  117      3    6   1   2  10
  118      3    6   4   5  16
  119      3    7   6   4  18
  120      3    7   6  17  18
  121      3    7   6  17  20
  122      3    7   6  17  19
  123      3    7   6   1   8
  124      3    7   6   1   9
  125      3    8   1   2  10
  126      3    8   1   6  17
  127      3    8   1   2  11
  128      3    9   1   2  10
  129      3    9   1   6  17
  130      3    9   1   2  11
  131      3   10   2   3  12
  132      3   10   2   3  13
  133      3   11   2   3  12
  134      3   11   2   3  13
  135      3   12   3   4  18
  136      3   13   3   4  18
  137      3   14   5   4  18
  138      3   15   5   4  18
  139      3   16   5   4  18
  140      3   17   6   4  18

          INDEP./SYM. INTERNAL COORDINATES
          --------------------------------
 CRD  1=  -0.1027 (  6) -0.2735 (  8) -0.4177 ( 39) -0.1049 ( 46) -0.2257 ( 47)
           0.2385 ( 48)  0.2886 ( 52)  0.2886 ( 54) -0.2020 ( 72) -0.1139 ( 88)
          -0.1078 ( 91)  0.3069 (106) -0.1645 (107) -0.1472 (108)
 CRD  2=   0.2280 (  1)  0.1665 (  8)  0.2314 ( 27)  0.1012 ( 33) -0.1155 ( 36)
          -0.1155 ( 38)  0.2085 ( 40)  0.1954 ( 44) -0.1349 ( 47) -0.1058 ( 48)
           0.1260 ( 52) -0.2840 ( 53)  0.1260 ( 54)  0.1133 ( 58) -0.1341 ( 62)
          -0.1659 ( 73) -0.1035 ( 81)  0.1044 ( 82) -0.1051 ( 88)  0.2721 ( 94)
           0.1494 ( 96)  0.1022 ( 97) -0.1142 (106)  0.1063 (107)  0.3123 (108)
          -0.1001 (109) -0.1193 (110) -0.1509 (119)  0.1078 (136)  0.1104 (138)
 CRD  3=  -0.1305 (  1) -0.1073 ( 11) -0.1073 ( 12) -0.5120 ( 14)  0.1097 ( 19)
           0.1651 ( 27)  0.1271 ( 30) -0.1581 ( 33)  0.1281 ( 36)  0.1281 ( 38)
          -0.2839 ( 44) -0.1558 ( 48) -0.1592 ( 52) -0.1592 ( 54)  0.1305 ( 66)
           0.1141 ( 67)  0.1605 ( 68) -0.1343 ( 72) -0.1701 ( 73)  0.1883 ( 81)
           0.1205 ( 82) -0.1774 ( 88)  0.1198 ( 94) -0.1532 (106)
 CRD  4=   0.1283 (  1)  0.3162 (  8)  0.4028 ( 14)  0.3092 ( 19)  0.1061 ( 27)
          -0.1240 ( 44)  0.2443 ( 47)  0.2004 ( 48)  0.1260 ( 49)  0.1371 ( 58)
          -0.1319 ( 60) -0.1668 ( 67) -0.1414 ( 71) -0.1726 ( 72) -0.1338 ( 73)
           0.1653 ( 81) -0.1279 ( 93)  0.1121 ( 96)  0.1195 (109)  0.1040 (137)
 CRD  5=  -0.2867 (  1) -0.1274 (  3)  0.3004 (  8)  0.1195 (  9) -0.2783 ( 19)
           0.1654 ( 20) -0.1273 ( 28)  0.1241 ( 31) -0.1445 ( 33)  0.1105 ( 41)
           0.1327 ( 42)  0.1492 ( 45)  0.1327 ( 50) -0.1144 ( 55) -0.1144 ( 56)
          -0.1043 ( 57) -0.1458 ( 59)  0.1023 ( 69)  0.1048 ( 70)  0.1248 ( 74)
           0.1108 ( 76) -0.1664 ( 82) -0.1002 ( 83) -0.1156 ( 84) -0.2234 ( 85)
           0.1318 ( 97) -0.1005 (122) -0.1096 (126) -0.1547 (129) -0.1263 (135)
 CRD  6=   0.1675 (  2)  0.1174 (  5) -0.1535 ( 11) -0.1535 ( 12) -0.2102 ( 14)
           0.2788 ( 19) -0.3182 ( 23)  0.1618 ( 24) -0.1286 ( 25)  0.1247 ( 26)
           0.1196 ( 28) -0.1286 ( 29)  0.2617 ( 31) -0.1002 ( 32)  0.2193 ( 33)
          -0.1160 ( 34)  0.1020 ( 41) -0.1546 ( 45) -0.1923 ( 47)  0.1106 ( 49)
          -0.2088 ( 57)  0.1756 ( 59) -0.1691 ( 60)  0.1041 ( 63) -0.1256 ( 64)
          -0.1369 ( 71) -0.1436 ( 97)  0.1162 (100) -0.1053 (115)
 CRD  7=  -0.3562 (  1) -0.2871 (  2) -0.1095 (  4)  0.1015 (  6)  0.2036 (  8)
          -0.1158 ( 24) -0.1274 ( 26)  0.1939 ( 31) -0.1277 ( 35)  0.1459 ( 37)
           0.1019 ( 43) -0.2982 ( 47)  0.2922 ( 48)  0.1019 ( 51) -0.1670 ( 61)
           0.1014 ( 63)  0.1416 ( 66) -0.1075 ( 69)  0.1187 ( 75)  0.1287 ( 88)
           0.1309 (102)  0.1011 (106)
 CRD  8=  -0.1732 (  1)  0.1348 ( 17)  0.2992 ( 19)  0.1993 ( 23) -0.1957 ( 33)
           0.5322 ( 44)  0.1132 ( 46) -0.2193 ( 47) -0.2747 ( 48)  0.1107 ( 49)
           0.1397 ( 58)  0.1014 ( 59) -0.1184 ( 60) -0.1318 ( 66)  0.1972 ( 67)
          -0.1009 ( 68) -0.1342 ( 71)
 CRD  9=   0.1148 (  1)  0.2709 (  2) -0.3527 (  6)  0.2829 (  8)  0.1258 ( 15)
          -0.1239 ( 16) -0.1360 ( 19)  0.1281 ( 23)  0.1019 ( 34) -0.1434 ( 37)
          -0.1555 ( 41)  0.1034 ( 45)  0.1208 ( 46) -0.3394 ( 47)  0.3525 ( 48)
          -0.1105 ( 58)  0.1333 ( 66) -0.1619 ( 68)  0.1398 (132) -0.1335 (133)
 CRD 10=  -0.4427 (  2) -0.1140 (  3) -0.1544 (  5) -0.5476 (  6) -0.1005 (  8)
          -0.1580 (  9) -0.1170 ( 30) -0.1500 ( 32) -0.1201 ( 35) -0.1100 ( 36)
          -0.1100 ( 38)  0.1553 ( 47) -0.1256 ( 48)
 CRD 11=   0.2291 (  1) -0.3311 (  2)  0.1535 (  6)  0.1191 (  8)  0.1374 (  9)
          -0.1401 ( 14)  0.1725 ( 19)  0.1772 ( 23) -0.2275 ( 28)  0.1093 ( 32)
          -0.1129 ( 33) -0.1710 ( 34)  0.1212 ( 41) -0.1887 ( 44) -0.1337 ( 47)
           0.1806 ( 48)  0.2119 ( 59)  0.2306 ( 61)  0.1530 ( 66) -0.1032 ( 81)
          -0.1089 ( 82) -0.1384 ( 83)  0.1297 ( 89) -0.1936 ( 97) -0.1533 (117)
          -0.1154 (125)  0.1220 (129)  0.1145 (130)
 CRD 12=   0.1779 (  1) -0.2036 (  2) -0.1274 (  3)  0.1872 (  6) -0.1096 ( 11)
          -0.1096 ( 12) -0.1029 ( 16)  0.1229 ( 17) -0.2007 ( 19) -0.1255 ( 24)
           0.1310 ( 26)  0.1054 ( 30) -0.1696 ( 35)  0.1979 ( 37)  0.2613 ( 44)
          -0.2038 ( 47)  0.1035 ( 53)  0.1792 ( 57) -0.2080 ( 58) -0.1192 ( 62)
           0.1185 ( 67) -0.1197 ( 68) -0.1535 ( 75) -0.1034 ( 79)  0.1014 ( 81)
          -0.1335 ( 87) -0.1641 ( 96)  0.1571 (115) -0.1075 (123) -0.1329 (126)
 CRD 13=  -0.2649 (  8) -0.1537 ( 11) -0.1537 ( 12)  0.1411 ( 14) -0.1147 ( 16)
          -0.2032 ( 18) -0.1400 ( 21)  0.1609 ( 22) -0.1030 ( 28)  0.1269 ( 35)
          -0.1074 ( 46) -0.1724 ( 47)  0.2533 ( 48)  0.2786 ( 58) -0.2407 ( 59)
          -0.1669 ( 68)  0.1107 ( 78)  0.3046 ( 96)  0.2922 ( 97) -0.1119 (106)
 CRD 14=  -0.1297 (  1) -0.1151 (  3) -0.2124 (  9)  0.1282 ( 10)  0.1117 ( 13)
          -0.2402 ( 20) -0.1007 ( 22)  0.1972 ( 24) -0.1241 ( 28) -0.1568 ( 30)
          -0.1289 ( 37)  0.1607 ( 41)  0.1070 ( 44)  0.2574 ( 45) -0.2139 ( 46)
          -0.1216 ( 58)  0.2006 ( 59) -0.1241 ( 70)  0.1253 ( 76)  0.1018 ( 78)
          -0.1058 ( 80) -0.1097 ( 84)  0.1094 ( 87)  0.1295 ( 90) -0.1020 ( 91)
          -0.1031 ( 92) -0.1199 ( 93) -0.1106 ( 96) -0.2068 ( 97) -0.2123 (100)
          -0.2222 (101)  0.1402 (109)  0.1048 (111)  0.1114 (136)
 CRD 15=  -0.1987 (  1) -0.1421 (  8) -0.2117 ( 10) -0.5153 ( 18)  0.1157 ( 21)
           0.1291 ( 25) -0.1130 ( 26)  0.1291 ( 29)  0.1235 ( 35)  0.1027 ( 37)
          -0.1367 ( 41) -0.1978 ( 58)  0.2205 ( 59)  0.1444 ( 69)  0.1036 ( 79)
          -0.1265 ( 89) -0.1677 ( 96) -0.1750 ( 97)  0.1004 ( 99) -0.1210 (102)
 CRD 16=  -0.2150 (  4)  0.2628 (  5) -0.3188 (  7)  0.1331 ( 10) -0.1939 ( 13)
           0.1864 ( 20)  0.1502 ( 21)  0.1420 ( 24) -0.1639 ( 28)  0.1023 ( 32)
          -0.1491 ( 46)  0.1016 ( 70)  0.1739 ( 76)  0.2073 ( 78) -0.1314 ( 89)
           0.1745 ( 91)  0.1756 ( 92)  0.1838 ( 93) -0.1094 (100)  0.1777 (114)
           0.1695 (116)  0.1684 (118)  0.1106 (137)  0.1187 (138)  0.1094 (139)
 CRD 17=   0.1470 (  1)  0.3407 (  5) -0.3841 (  7) -0.2516 ( 10)  0.1724 ( 13)
           0.1163 ( 18) -0.1272 ( 21) -0.1249 ( 30)  0.1162 ( 37) -0.1392 ( 41)
           0.1371 ( 57) -0.1152 ( 61)  0.1586 ( 76)  0.1486 ( 78) -0.2046 ( 87)
          -0.1912 ( 89) -0.1595 ( 91) -0.1525 ( 92) -0.1625 ( 93) -0.1033 (114)
          -0.1003 (118)  0.1178 (120)
 CRD 18=   0.1451 (  1)  0.2618 (  3) -0.1591 (  9)  0.1020 ( 10)  0.3429 ( 13)
           0.1797 ( 17) -0.1928 ( 18) -0.1813 ( 32) -0.1073 ( 47) -0.1087 ( 48)
          -0.1206 ( 57) -0.1189 ( 58)  0.1107 ( 60)  0.1509 ( 61)  0.1413 ( 67)
          -0.1409 ( 72) -0.1139 ( 73)  0.1106 ( 75)  0.1637 ( 77)  0.1182 ( 81)
          -0.1288 ( 96)  0.1024 ( 99)  0.1128 (103) -0.1033 (107) -0.1174 (112)
          -0.1235 (115) -0.1176 (117)  0.1277 (121) -0.1329 (135)
 CRD 19=  -0.1032 (  1)  0.2184 (  3) -0.4125 (  4) -0.1084 (  7) -0.2240 ( 15)
          -0.2408 ( 16) -0.2235 ( 17) -0.1383 ( 20) -0.1056 ( 22)  0.1118 ( 34)
          -0.1596 ( 35)  0.1153 ( 44)  0.1339 ( 47)  0.1121 ( 48) -0.1296 ( 66)
          -0.1301 ( 67) -0.1114 ( 68) -0.1222 ( 77) -0.1104 ( 79)  0.1102 ( 86)
          -0.1071 ( 99) -0.1399 (115) -0.1297 (117) -0.1019 (121)
 CRD 20=  -0.1486 (  3)  0.2140 (  4) -0.1167 ( 10)  0.1947 ( 13) -0.1291 ( 14)
          -0.4089 ( 15) -0.3879 ( 16) -0.2984 ( 17)  0.1291 ( 18) -0.1345 ( 34)
           0.1348 ( 35)  0.1620 ( 44)  0.1201 ( 47)  0.1093 ( 48) -0.1474 ( 66)
          -0.1127 ( 67) -0.1423 ( 68)  0.1052 ( 99)  0.1041 (105)  0.1306 (126)
           0.1296 (129)
 CRD 21=  -0.2860 (  9)  0.2852 ( 10) -0.2727 ( 13) -0.1407 ( 15) -0.1287 ( 16)
          -0.2836 ( 17)  0.1247 ( 18)  0.1616 ( 20)  0.2008 ( 22)  0.1789 ( 30)
          -0.1890 ( 32) -0.1157 ( 60)  0.1509 ( 69)  0.1067 ( 82) -0.1127 (100)
          -0.1218 (101) -0.1897 (109) -0.1948 (110) -0.1712 (111) -0.1764 (112)
           0.1159 (120) -0.1161 (137) -0.1148 (139)
 CRD 22=  -0.1174 (  1) -0.2720 (  3)  0.1134 (  5)  0.1603 ( 13)  0.1355 ( 14)
           0.1240 ( 15)  0.1784 ( 16)  0.1214 ( 17)  0.2243 ( 18) -0.3491 ( 21)
          -0.3197 ( 22)  0.1626 ( 30) -0.1283 ( 32) -0.1150 ( 34) -0.1086 ( 45)
           0.1088 ( 60) -0.1079 ( 75) -0.1316 ( 77) -0.1150 (109) -0.1011 (110)
          -0.1648 (111) -0.1509 (112) -0.1187 (121)  0.1333 (126)  0.1443 (129)
          -0.1556 (135) -0.1696 (136)
 CRD 23=   0.1660 (  3) -0.1583 ( 13) -0.1861 ( 18) -0.5220 ( 21) -0.5753 ( 22)
           0.1161 ( 58) -0.2346 ( 71)  0.1627 ( 77) -0.1062 ( 97)  0.1265 (103)
           0.1681 (121)
 CRD 24=   0.2606 ( 13) -0.1966 ( 15)  0.1049 ( 19) -0.2965 ( 21)  0.2117 ( 22)
           0.1346 ( 34) -0.1093 ( 35)  0.1106 ( 57) -0.1079 ( 61)  0.1935 ( 69)
          -0.1920 ( 70) -0.1125 ( 75)  0.1121 ( 79)  0.1321 ( 91) -0.1270 ( 99)
          -0.1591 (102) -0.1071 (103) -0.1378 (105)  0.1362 (114)  0.1273 (116)
           0.1806 (118) -0.1083 (121) -0.1603 (122) -0.1437 (123) -0.1545 (124)
          -0.1122 (126) -0.1230 (129)  0.1622 (137)  0.1712 (138)  0.2155 (139)
 CRD 25=   0.4152 (  4) -0.1599 (  5) -0.1257 (  7) -0.1342 ( 10)  0.1367 ( 13)
           0.1281 ( 15)  0.2234 ( 21) -0.1624 ( 22)  0.1073 ( 24)  0.1173 ( 41)
           0.1034 ( 57) -0.1650 ( 61) -0.1623 ( 69)  0.1473 ( 70)  0.1100 ( 73)
           0.1035 ( 75)  0.1131 ( 77) -0.1201 ( 89) -0.1130 ( 99)  0.1039 (102)
           0.1135 (103) -0.1020 (111)  0.1170 (119) -0.1010 (123) -0.1275 (125)
          -0.2037 (128) -0.1577 (130) -0.1027 (131) -0.1081 (132) -0.1235 (133)
          -0.1290 (134) -0.1242 (136)
 CRD 26=  -0.1249 (  9) -0.1306 ( 10) -0.4668 ( 15)  0.5653 ( 16)  0.2621 ( 66)
          -0.3110 ( 68)  0.1787 ( 91) -0.1474 ( 93) -0.1618 (114) -0.1141 (116)
           0.1643 (118) -0.1146 (137) -0.1623 (138)  0.1638 (139)
 CRD 27=  -0.1244 (  5) -0.1645 (  7)  0.1228 (  9)  0.1334 ( 10) -0.3726 ( 15)
          -0.1782 ( 16)  0.5955 ( 17)  0.2068 ( 66) -0.3210 ( 67)  0.1085 ( 68)
          -0.1939 ( 92)  0.1442 ( 93)  0.1276 (114) -0.2105 (116) -0.2085 (137)
           0.1296 (138)
 CRD 28=  -0.4386 (  5) -0.4567 (  7)  0.3391 (  9)  0.3807 ( 10)  0.1884 ( 16)
          -0.2000 ( 17) -0.1669 ( 64)  0.1344 ( 65)  0.1129 ( 67)  0.1006 (127)
           0.1419 (131) -0.1016 (134)
 CRD 29=   0.2735 (  3) -0.3102 (  5) -0.2915 (  7) -0.4976 (  9) -0.3536 ( 10)
          -0.1008 ( 57) -0.1170 ( 64) -0.1689 ( 65)  0.1624 (127)  0.1689 (132)
           0.1020 (135)
 CRD 30=   0.1220 (  1) -0.5371 (  3) -0.4309 (  4) -0.2956 (  5) -0.1683 (  7)
          -0.1472 (  9) -0.1526 ( 10)  0.1136 ( 34) -0.2330 ( 63)  0.1249 ( 77)
          -0.1054 ( 87) -0.1280 (105)  0.1037 (121) -0.1195 (124) -0.1729 (125)
          -0.1426 (129)
 CRD 31=   0.1774 (  3) -0.1838 (  4) -0.1071 (  8) -0.2152 (  9)  0.3105 ( 10)
           0.2344 ( 13)  0.1667 ( 18)  0.1183 ( 19)  0.1607 ( 20)  0.1003 ( 21)
          -0.1106 ( 22) -0.1278 ( 24)  0.1113 ( 28)  0.1135 ( 37) -0.1252 ( 41)
          -0.1079 ( 46)  0.1082 ( 70)  0.1050 ( 73)  0.1024 ( 77)  0.1256 ( 78)
          -0.1339 (105) -0.1130 (112)  0.1075 (117)  0.1075 (119) -0.1137 (124)
           0.1412 (125)  0.1233 (127)  0.1290 (128) -0.1203 (129)  0.1111 (130)
           0.1972 (131)  0.1460 (132)  0.2110 (133)  0.1598 (134) -0.1160 (135)
 CRD 32=   0.2039 (  9) -0.1680 ( 10)  0.1046 ( 11)  0.1046 ( 12)  0.1559 ( 13)
           0.1880 ( 18)  0.4838 ( 20)  0.1122 ( 55)  0.1122 ( 56) -0.1165 ( 58)
           0.1610 ( 69)  0.1277 ( 70) -0.1656 ( 75)  0.1326 ( 82) -0.1174 ( 93)
          -0.1543 (102)  0.1181 (109) -0.2276 (122)  0.1360 (135)  0.1876 (136)
          -0.1588 (137) -0.1891 (138) -0.1420 (139)
 CRD 33=  -0.1400 (  3)  0.1338 (  4) -0.2674 (  5)  0.2914 (  7)  0.1793 ( 76)
           0.1901 ( 78)  0.1183 ( 80) -0.1711 ( 87) -0.1973 ( 89) -0.1238 ( 90)
           0.1415 (100)  0.1492 (101)  0.1067 (105) -0.1675 (115) -0.1547 (117)
          -0.2020 (125) -0.2148 (127) -0.2281 (128) -0.2409 (130)  0.2133 (131)
           0.2024 (132)  0.2210 (133)  0.2101 (134)
 CRD 34=   0.1887 (  3) -0.1890 (  4) -0.1991 (  5)  0.1776 (  7) -0.1081 (  8)
           0.1633 (  9) -0.1864 ( 10) -0.1334 ( 11) -0.1334 ( 12) -0.1329 ( 13)
           0.1736 ( 15)  0.1276 ( 16)  0.1451 ( 17)  0.4243 ( 18) -0.1234 ( 22)
           0.1532 ( 44)  0.1144 ( 47)  0.1546 ( 48) -0.1265 ( 66) -0.1495 ( 67)
          -0.1574 ( 68) -0.1322 ( 73) -0.1391 ( 96) -0.1018 (119)  0.1580 (120)
           0.1125 (121)  0.1188 (122)
 CRD 35=   0.1214 (  3) -0.1298 (  4)  0.1506 (  7)  0.1136 (  8)  0.1526 (  9)
          -0.1281 ( 10) -0.1871 ( 13) -0.1804 ( 18)  0.1960 ( 19) -0.1286 ( 20)
          -0.2110 ( 21) -0.1056 ( 26)  0.1025 ( 57) -0.1592 ( 58) -0.1923 ( 59)
           0.2024 ( 62)  0.1384 ( 70)  0.2084 ( 71)  0.1028 ( 76) -0.1491 ( 86)
           0.1963 ( 95) -0.1699 ( 96)  0.2255 ( 97)  0.1213 (107)  0.2457 (119)
          -0.1582 (123)  0.1098 (132)
 CRD 36=  -0.1106 (  3)  0.3107 ( 13) -0.2145 ( 14)  0.1269 ( 15)  0.2774 ( 16)
           0.1067 ( 17) -0.2859 ( 18)  0.2040 ( 20)  0.1065 ( 26) -0.1079 ( 35)
           0.1619 ( 44)  0.2206 ( 47)  0.1450 ( 48) -0.1279 ( 49) -0.1131 ( 65)
          -0.2122 ( 66) -0.2310 ( 67) -0.1243 ( 99) -0.1014 (109)  0.1189 (121)
          -0.1339 (123)  0.1369 (135)
 CRD 37=  -0.1333 (  3)  0.1553 (  4)  0.1202 (  5) -0.1942 (  7) -0.1562 (  9)
           0.1934 ( 10)  0.1199 ( 13)  0.4432 ( 19) -0.2454 ( 20) -0.1445 ( 22)
           0.1319 ( 49) -0.2178 ( 58) -0.2184 ( 59) -0.1053 ( 67)  0.1526 ( 69)
           0.1093 ( 70)  0.1898 ( 71) -0.2305 ( 96)  0.2230 ( 97)  0.1275 (112)
          -0.1086 (115)
 CRD 38=   0.1011 (  4)  0.1472 (  5) -0.1212 (  8) -0.1336 (  9) -0.2017 ( 13)
          -0.4128 ( 14)  0.1678 ( 15)  0.2222 ( 17) -0.1105 ( 26) -0.1406 ( 30)
          -0.1305 ( 32)  0.1344 ( 41)  0.1010 ( 43)  0.1637 ( 44)  0.1458 ( 47)
           0.1720 ( 48)  0.1010 ( 51) -0.1249 ( 63) -0.1530 ( 66) -0.1046 ( 67)
          -0.2395 ( 68)  0.1588 (109)  0.1203 (111) -0.1512 (117) -0.1176 (120)
          -0.1070 (121) -0.1960 (125)  0.1217 (130) -0.1258 (135)
 CRD 39=  -0.2715 (  2) -0.1345 (  3)  0.1158 (  5)  0.3323 (  6) -0.2288 (  8)
          -0.1126 ( 13)  0.1568 ( 21) -0.1484 ( 22)  0.1825 ( 24)  0.2297 ( 28)
          -0.1839 ( 37) -0.1462 ( 41)  0.1411 ( 45)  0.1209 ( 46)  0.1119 ( 63)
          -0.1269 ( 65)  0.1232 ( 76) -0.1180 ( 78)  0.1856 (100) -0.1254 (101)
          -0.1427 (115)  0.1365 (125) -0.1029 (126) -0.1433 (130)  0.3191 (132)
          -0.2332 (133)
 CRD 40=   0.2546 (  1) -0.1785 (  2) -0.1391 (  5) -0.1722 ( 14)  0.1101 ( 15)
          -0.3208 ( 21)  0.3637 ( 22) -0.1125 ( 37) -0.1472 ( 41)  0.1086 ( 43)
          -0.1144 ( 46)  0.1086 ( 51) -0.1052 ( 57)  0.1013 ( 59)  0.1230 ( 64)
          -0.1039 ( 68) -0.1184 ( 69)  0.1484 ( 70) -0.1010 ( 79)  0.1171 (103)
           0.1469 (117) -0.1919 (120)  0.2268 (125) -0.1484 (130) -0.1324 (136)
 CRD 41=   0.2270 (  1) -0.1303 (  2)  0.1089 (  8) -0.1523 ( 11) -0.1523 ( 12)
          -0.2206 ( 15)  0.1455 ( 16)  0.1031 ( 17) -0.1128 ( 24)  0.2018 ( 34)
           0.1721 ( 35)  0.1009 ( 46) -0.1957 ( 57) -0.1602 ( 61)  0.1149 ( 64)
          -0.1914 ( 66)  0.1194 ( 87) -0.1115 ( 89) -0.1084 ( 91)  0.1312 ( 92)
           0.1026 ( 99)  0.1222 (101) -0.1620 (105)  0.1785 (116)  0.1044 (123)
          -0.1601 (124)  0.1344 (125)  0.1347 (126)  0.1206 (127) -0.1299 (129)
          -0.1104 (130) -0.1699 (131)  0.1532 (134) -0.1896 (139)
 CRD 42=  -0.2513 (  8)  0.1340 ( 13)  0.1193 ( 14)  0.1126 ( 16) -0.2094 ( 17)
           0.1139 ( 18) -0.1965 ( 21)  0.2618 ( 22) -0.1133 ( 30) -0.1102 ( 32)
           0.1759 ( 45)  0.1527 ( 46) -0.1100 ( 58)  0.1039 ( 59) -0.1098 ( 62)
          -0.1341 ( 64) -0.1247 ( 67)  0.1275 ( 68)  0.1342 ( 70)  0.1060 ( 76)
           0.1035 ( 77) -0.1335 ( 78) -0.1060 ( 88)  0.1849 ( 93) -0.1060 ( 97)
           0.1118 (103)  0.1239 (114)  0.1633 (121) -0.1398 (128)  0.1549 (132)
          -0.1547 (133)  0.1276 (138)
 CRD 43=   0.1004 (  8) -0.1798 ( 11) -0.1798 ( 12) -0.1550 ( 19) -0.3800 ( 20)
           0.2160 ( 21) -0.1113 ( 26)  0.1805 ( 69)  0.1326 ( 70) -0.3391 ( 71)
          -0.2042 ( 75)  0.2068 ( 77)  0.1252 ( 96) -0.2369 (102)  0.1741 (103)
           0.1169 (121) -0.2941 (122) -0.1008 (127)
 CRD 44=  -0.1411 (  1) -0.1025 (  3)  0.1405 (  4)  0.1523 (  5) -0.1565 (  7)
          -0.1024 ( 13)  0.2504 ( 14) -0.1315 ( 15) -0.1639 ( 16)  0.2016 ( 17)
          -0.1644 ( 21)  0.1894 ( 22)  0.1172 ( 27) -0.1025 ( 44)  0.2191 ( 67)
          -0.1149 ( 88)  0.1233 ( 89)  0.1001 ( 92) -0.1680 ( 93)  0.1540 ( 94)
          -0.1020 ( 97)  0.1089 (100)  0.1408 (101)  0.1019 (103) -0.1030 (114)
          -0.1017 (115)  0.1652 (116) -0.1233 (117)  0.1475 (121)  0.1027 (122)
          -0.1282 (123) -0.1310 (124)  0.1197 (133)  0.1143 (137) -0.1538 (138)
 CRD 45=  -0.1016 (  1) -0.2158 (  2)  0.1783 (  3)  0.1017 (  4)  0.1103 (  5)
          -0.1181 (  6) -0.1715 ( 11) -0.1715 ( 12)  0.1116 ( 16)  0.1396 ( 18)
           0.2228 ( 20)  0.1097 ( 28)  0.1015 ( 32) -0.2256 ( 63) -0.1198 ( 65)
          -0.1074 ( 69)  0.1470 ( 71)  0.1619 ( 75) -0.1172 ( 85) -0.1286 ( 87)
           0.1187 ( 89) -0.1235 ( 91)  0.1355 ( 99)  0.1154 (102) -0.1365 (103)
           0.1341 (110)  0.1223 (112) -0.1010 (120) -0.2119 (121)  0.1325 (123)
          -0.1604 (125) -0.1807 (127) -0.1721 (129)  0.1028 (132)  0.1125 (135)
 CRD 46=  -0.1062 (  1)  0.1675 (  6) -0.1749 (  9)  0.1124 ( 11)  0.1124 ( 12)
          -0.2502 ( 15)  0.2491 ( 16) -0.1331 ( 47)  0.1521 ( 48)  0.1851 ( 65)
          -0.2045 ( 66)  0.1784 ( 68) -0.1289 ( 76) -0.2230 ( 91)  0.1067 ( 92)
           0.1008 (105) -0.1350 (106)  0.1477 (109)  0.1262 (111) -0.2350 (118)
           0.1024 (124) -0.1178 (126) -0.1130 (132) -0.1663 (134)  0.1275 (137)
           0.1097 (138) -0.2022 (139)
 CRD 47=  -0.1522 (  3)  0.2574 (  4)  0.1669 (  9) -0.2661 ( 10)  0.1018 ( 16)
          -0.1000 ( 17) -0.1231 ( 32)  0.1364 ( 34) -0.1037 ( 35)  0.1015 ( 45)
          -0.1176 ( 46)  0.1010 ( 61)  0.1313 ( 76)  0.2069 ( 78)  0.1053 ( 81)
           0.1012 ( 85)  0.1474 ( 86)  0.1835 ( 89)  0.1322 ( 93) -0.1425 ( 95)
          -0.1553 (105) -0.1122 (107) -0.1187 (110) -0.1595 (112)  0.1260 (114)
          -0.1319 (119)  0.1148 (127)  0.1476 (128) -0.1286 (129)  0.1987 (130)
           0.1360 (131)  0.1336 (133) -0.1382 (135)  0.1084 (138)
 CRD 48=   0.2321 (  6) -0.2239 (  7) -0.1390 ( 11) -0.1390 ( 12)  0.1095 ( 14)
           0.1152 ( 15) -0.1932 ( 17) -0.1879 ( 19) -0.1141 ( 26) -0.1141 ( 37)
          -0.1165 ( 39)  0.1031 ( 62)  0.1891 ( 64)  0.1099 ( 66) -0.1270 ( 67)
          -0.1381 ( 72)  0.1078 ( 81) -0.1456 ( 86) -0.1757 ( 92)  0.1566 ( 95)
           0.1684 (101)  0.1693 (109)  0.1310 (114) -0.2122 (115) -0.1182 (116)
          -0.1280 (123) -0.1112 (124) -0.2086 (127) -0.1499 (130)  0.1558 (133)
           0.1127 (134)  0.1303 (136) -0.1600 (137)
 CRD 49=   0.2128 (  1) -0.1762 (  2)  0.2517 (  5) -0.1444 (  6)  0.1680 (  8)
           0.2088 ( 23) -0.1048 ( 31) -0.1204 ( 33)  0.1058 ( 35) -0.1022 ( 57)
          -0.2256 ( 64)  0.1122 ( 65) -0.2012 ( 76)  0.1906 ( 87)  0.2005 (100)
          -0.1921 (117)  0.2030 (127) -0.3104 (128)  0.3156 (131) -0.2153 (134)
 CRD 50=  -0.1314 (  1) -0.2357 (  2)  0.1330 (  3)  0.2119 (  6)  0.1507 (  8)
          -0.1773 (  9) -0.1001 ( 16)  0.1354 ( 24)  0.1151 ( 26)  0.1237 ( 31)
          -0.1513 ( 33) -0.1278 ( 39) -0.1197 ( 41) -0.1717 ( 63)  0.1932 ( 65)
           0.1079 ( 78) -0.1376 ( 81) -0.1295 ( 87)  0.1567 ( 91)  0.1030 ( 99)
          -0.1120 (105) -0.1765 (110)  0.1324 (111) -0.1167 (112)  0.1066 (118)
           0.1302 (123)  0.1680 (126) -0.1106 (127)  0.1505 (128)  0.1286 (131)
          -0.2395 (134)  0.1696 (136)
 CRD 51=  -0.1739 (  3)  0.1386 (  7) -0.2884 ( 11) -0.2884 ( 12)  0.1412 ( 18)
           0.1330 ( 25) -0.1802 ( 26) -0.1060 ( 28)  0.1330 ( 29) -0.1108 ( 31)
          -0.1421 ( 35)  0.1229 ( 61)  0.1013 ( 63)  0.1746 ( 75)  0.1253 ( 79)
           0.1437 ( 80) -0.1192 ( 81)  0.1213 ( 84)  0.1625 ( 86) -0.1684 ( 90)
          -0.1343 ( 99) -0.1286 (121)  0.1024 (124)  0.1003 (125) -0.2559 (126)
           0.1964 (127)  0.1282 (130) -0.1113 (133) -0.1243 (134)
 CRD 52=  -0.1947 (  1)  0.2375 (  8) -0.2057 ( 14)  0.1562 ( 18)  0.1723 ( 25)
           0.1723 ( 29) -0.1858 ( 36) -0.1858 ( 38) -0.2193 ( 43) -0.2193 ( 51)
           0.1809 ( 52)  0.1809 ( 54) -0.1233 ( 72)  0.1602 ( 73)  0.1113 ( 83)
           0.1189 ( 98) -0.1341 (102) -0.1340 (103) -0.1597 (104) -0.1275 (107)
          -0.2153 (113)  0.1526 (118)  0.1560 (119)  0.1941 (140)
 CRD 53=   0.1395 (  4)  0.1184 (  7)  0.1440 ( 10)  0.1760 ( 11)  0.1760 ( 12)
          -0.1302 ( 13)  0.1106 ( 32)  0.1047 ( 34) -0.1022 ( 57) -0.1460 ( 72)
           0.1820 ( 80) -0.1010 ( 82) -0.1066 ( 83)  0.1365 ( 84)  0.1524 ( 85)
          -0.1894 ( 90) -0.1484 ( 91) -0.1851 ( 92)  0.1533 ( 95)  0.1169 (109)
           0.2270 (110)  0.1219 (121) -0.1585 (123) -0.2682 (124)  0.1116 (128)
           0.1534 (130) -0.1131 (131) -0.1556 (133) -0.1006 (134)
 CRD 54=  -0.1545 ( 13)  0.1649 ( 19) -0.1056 ( 42) -0.1056 ( 50)  0.1459 ( 55)
           0.1459 ( 56) -0.1006 ( 62)  0.1221 ( 73)  0.2408 ( 74) -0.1825 ( 83)
          -0.1901 ( 84)  0.1310 ( 86) -0.1131 ( 91) -0.1818 ( 92)  0.1133 ( 94)
          -0.1534 ( 99) -0.1104 (105) -0.3482 (107) -0.1550 (108)  0.1233 (109)
           0.1730 (110) -0.1477 (111)  0.2350 (114)  0.1148 (116)  0.1835 (118)
          -0.1985 (119)  0.1677 (123)  0.2107 (124)

 THE DETERMINANT OF THE G MATRIX IS 10**(   -12)


                     --------------------
                     INTERNAL COORDINATES
                     --------------------

                 - - ATOMS - -         COORDINATE      COORDINATE
 NO.   TYPE    I  J  K  L  M  N        (BOHR,RAD)       (ANG,DEG)
 ----------------------------------------------------------------
   1 STRETCH   1  6                     2.8902641       1.5294620
   2 STRETCH   1  2                     2.9336487       1.5524201
   3 STRETCH   1  9                     2.0564270       1.0882144
   4 STRETCH   1  8                     2.0573694       1.0887131
   5 STRETCH   2 11                     2.0535949       1.0867157
   6 STRETCH   2  3                     2.9318511       1.5514689
   7 STRETCH   2 10                     2.0550254       1.0874727
   8 STRETCH   3  4                     2.9391857       1.5553502
   9 STRETCH   3 12                     2.0553395       1.0876389
  10 STRETCH   3 13                     2.0520073       1.0858756
  11 STRETCH   4  6                     2.6706220       1.4132324
  12 STRETCH   4  6                     2.6706220       1.4132324
  13 STRETCH   4 18                     3.7983492       2.0100000
  14 STRETCH   4  5                     2.9052214       1.5373771
  15 STRETCH   5 15                     2.0517565       1.0857429
  16 STRETCH   5 14                     2.0503236       1.0849846
  17 STRETCH   5 16                     2.0580450       1.0890706
  18 STRETCH   6  7                     2.0411694       1.0801404
  19 STRETCH   6 17                     3.9306302       2.0800001
  20 STRETCH  17 18                     3.7416574       1.9800000
  21 STRETCH  17 20                     2.1785736       1.1528516
  22 STRETCH  17 19                     2.1782566       1.1526838
  23 BEND      1  2  3                  1.8437949     105.6416638
  24 BEND      1  2 11                  1.9632994     112.4887696
  25 BEND      1  6  4                  1.9531960     111.9098846
  26 BEND      1  6  7                  2.1240804     121.7008429
  27 BEND      1  6 17                  1.9689757     112.8139989
  28 BEND      1  2 10                  1.9112615     109.5072174
  29 BEND      1  6  4                  1.9531960     111.9098846
  30 BEND      2  3 13                  1.9350846     110.8721802
  31 BEND      2  1  6                  1.8105440     103.7365297
  32 BEND      2  3 12                  1.9573225     112.1463195
  33 BEND      2  3  4                  1.8280444     104.7392310
  34 BEND      2  1  9                  1.9452443     111.4542860
  35 BEND      2  1  8                  1.9395002     111.1251768
  36 BEND      3  4  6                  1.8901892     108.2998645
  37 BEND      3  2 11                  1.9511484     111.7925704
  38 BEND      3  4  6                  1.8901892     108.2998645
  39 BEND      3  4  5                  2.0946462     120.0143840
  40 BEND      3  4 18                  1.5959964      91.4438584
  41 BEND      3  2 10                  1.9125542     109.5812832
  42 BEND      4  6 17                  1.2465132      71.4199470
  43 BEND      4  6  7                  2.1186447     121.3893970
  44 BEND      4  5 16                  1.8943394     108.5376525
  45 BEND      4  3 13                  1.9402808     111.1699010
  46 BEND      4  3 12                  1.9227313     110.1643876
  47 BEND      4  5 14                  1.9441684     111.3926444
  48 BEND      4  5 15                  1.9320819     110.7001410
  49 BEND      4 18 17                  1.1140940      63.8328819
  50 BEND      4  6 17                  1.2465132      71.4199470
  51 BEND      4  6  7                  2.1186447     121.3893970
  52 BEND      5  4  6                  2.1073679     120.7432858
  53 BEND      5  4 18                  1.5005333      85.9742270
  54 BEND      5  4  6                  2.1073679     120.7432858
  55 BEND      6  4 18                  2.2081017     126.5149109
  56 BEND      6  4 18                  2.2081017     126.5149109
  57 BEND      6  1  8                  1.9652753     112.6019780
  58 BEND      6 17 19                  1.8484390     105.9077545
  59 BEND      6 17 20                  1.8538786     106.2194187
  60 BEND      6 17 18                  1.7134487      98.1733766
  61 BEND      6  1  9                  1.9313567     110.6585887
  62 BEND      7  6 17                  1.8363095     105.2127845
  63 BEND      8  1  9                  1.8732379     107.3286255
  64 BEND     10  2 11                  1.8815135     107.8027830
  65 BEND     12  3 13                  1.8811659     107.7828677
  66 BEND     14  5 16                  1.8990563     108.8079097
  67 BEND     14  5 15                  1.9013773     108.9408919
  68 BEND     15  5 16                  1.8918222     108.3934289
  69 BEND     18 17 19                  1.8276504     104.7166539
  70 BEND     18 17 20                  1.8499373     105.9935986
  71 BEND     19 17 20                  2.2889974     131.1498924
  72 TORSION   1  6  4  5               2.5237965     144.6028869
  73 TORSION   1  6  4 18              -1.8430392    -105.5983690
  74 TORSION   1  6  4  3               0.0093350       0.5348546
  75 TORSION   1  6 17 19              -0.0548501      -3.1426772
  76 TORSION   1  2  3 13               1.6956415      97.1531020
  77 TORSION   1  6 17 20              -2.5454828    -145.8454212
  78 TORSION   1  2  3 12              -2.4837854    -142.3104203
  79 TORSION   1  6 17 18               1.8288265     104.7840410
  80 TORSION   1  2  3  4              -0.3987093     -22.8443580
  81 TORSION   2  3  4  5              -2.2736937    -130.2730553
  82 TORSION   2  3  4 18               2.5052871     143.5423791
  83 TORSION   2  3  4  6               0.2461420      14.1028969
  84 TORSION   2  1  6  4              -0.2596210     -14.8751902
  85 TORSION   2  1  6 17              -1.6255895     -93.1394153
  86 TORSION   2  1  6  7               2.4502775     140.3905592
  87 TORSION   3  2  1  8              -1.7165585     -98.3515583
  88 TORSION   3  4 18 17              -2.0353137    -116.6148833
  89 TORSION   3  2  1  9               2.4780834     141.9837208
  90 TORSION   3  2  1  6               0.3994467      22.8866126
  91 TORSION   3  4  5 16               1.2788608      73.2733264
  92 TORSION   3  4  5 14              -0.8115712     -46.4996056
  93 TORSION   3  4  5 15              -2.9300376    -167.8787878
  94 TORSION   3  4  6 17               1.8908138     108.3356526
  95 TORSION   3  4  6  7              -2.7020977    -154.8187942
  96 TORSION   4 18 17 19               1.9242944     110.2539474
  97 TORSION   4 18 17 20              -1.8885729    -108.2072586
  98 TORSION   4 18 17  6               0.0235235       1.3477999
  99 TORSION   4  6  1  8               1.8389926     105.3665150
 100 TORSION   4  3  2 10               1.6587170      95.0374838
 101 TORSION   4  3  2 11              -2.5396219    -145.5096162
 102 TORSION   4  6 17 19              -1.9153580    -109.7419308
 103 TORSION   4  6 17 20               1.8771946     107.5553252
 104 TORSION   4  6 17 18              -0.0316814      -1.8152125
 105 TORSION   4  6  1  9              -2.3477584    -134.5166496
 106 TORSION   5  4 18 17               2.1536612     123.3956991
 107 TORSION   5  4  6  7              -0.1876362     -10.7507619
 108 TORSION   5  4  6 17              -1.8779100    -107.5963151
 109 TORSION   5  4  3 13               1.9186137     109.9284659
 110 TORSION   5  4  3 12              -0.1655492      -9.4852684
 111 TORSION   6  4  3 13              -1.8447359    -105.6955819
 112 TORSION   6  4  3 12               2.3542866     134.8906838
 113 TORSION   6  4 18 17              -0.0426496      -2.4436432
 114 TORSION   6  4  5 15               0.9105262      52.1693075
 115 TORSION   6  1  2 11               2.5325815     145.1062307
 116 TORSION   6  4  5 14               3.0289926     173.5484897
 117 TORSION   6  1  2 10              -1.6588460     -95.0448731
 118 TORSION   6  4  5 16              -1.1637607     -66.6785784
 119 TORSION   7  6  4 18               1.7287134      99.0479821
 120 TORSION   7  6 17 18              -2.1008947    -120.3723985
 121 TORSION   7  6 17 20              -0.1920187     -11.0018608
 122 TORSION   7  6 17 19               2.2986140     131.7008832
 123 TORSION   7  6  1  8              -1.7342942     -99.3677356
 124 TORSION   7  6  1  9               0.3621401      20.7490999
 125 TORSION   8  1  2 10               2.5083341     143.7169560
 126 TORSION   8  1  6 17               0.4730242      27.1022898
 127 TORSION   8  1  2 11               0.4165762      23.8680598
 128 TORSION   9  1  2 10               0.4197907      24.0522350
 129 TORSION   9  1  6 17               2.5694585     147.2191253
 130 TORSION   9  1  2 11              -1.6719671     -95.7966612
 131 TORSION  10  2  3 12              -0.4263591     -24.4285785
 132 TORSION  10  2  3 13              -2.5301175    -144.9650562
 133 TORSION  11  2  3 12               1.6584873      95.0243215
 134 TORSION  11  2  3 13              -0.4452711     -25.5121562
 135 TORSION  12  3  4 18              -1.6697536     -95.6698340
 136 TORSION  13  3  4 18               0.4144092      23.7439003
 137 TORSION  14  5  4 18               0.7477397      42.8423298
 138 TORSION  15  5  4 18              -1.3707267     -78.5368524
 139 TORSION  16  5  4 18               2.8381717     162.6152618
 140 TORSION  17  6  4 18               0.0384396       2.2024290

     ------------------------------------------
     THE POINT GROUP IS C1 , NAXIS= 0, ORDER= 1
     ------------------------------------------

     DIMENSIONS OF THE SYMMETRY SUBSPACES ARE
 A   =   48

 ..... DONE SETTING UP THE RUN .....
 STEP CPU TIME =     0.07 TOTAL CPU TIME =          0.1 (      0.0 MIN)
 TOTAL WALL CLOCK TIME=          0.1 SECONDS, CPU UTILIZATION IS    70.00%


          -----------------------------
          STATIONARY POINT LOCATION RUN
          -----------------------------

 OBTAINING INITIAL HESSIAN, HESS=CALC    

     ---------------------------------
     HESSIAN MATRIX CONTROL PARAMETERS
     ---------------------------------
     METHOD=ANALYTIC   NVIB  =       2   VIBSIZ= 0.01000
     RDHESS=       F   PURIFY=       F   PRTIFC=       F
     VIBANL=       F   DECOMP=       F   PROJCT=       F
     SCLFAC= 1.00000   PRTSCN=       F   NPRT  =       0
     PULCOR=       F   NPUN  =       0   REDOVB=       T
     HSSTYP=GENERAL 
 Old integral subroutine is used

     ------------------------------
     CPHF RESPONSE SOLUTION OPTIONS
     ------------------------------
     POLAR  =       F     NWORD  =       0
     CPHF   =AO      

          ********************
          1 ELECTRON INTEGRALS
          ********************
 ...... END OF ONE-ELECTRON INTEGRALS ......
 STEP CPU TIME =     0.03 TOTAL CPU TIME =          0.1 (      0.0 MIN)
 TOTAL WALL CLOCK TIME=          0.1 SECONDS, CPU UTILIZATION IS    76.92%

          -------------
          GUESS OPTIONS
          -------------
          GUESS =HUCKEL            NORB  =       0          NORDER=       0
          MIX   =       F          PRTMO =       F          PUNMO =       F
          TOLZ  = 1.0E-08          TOLE  = 1.0E-05
          SYMDEN=       F          PURIFY=       F

 INITIAL GUESS ORBITALS GENERATED BY HUCKEL   ROUTINE.
 HUCKEL GUESS REQUIRES     39252 WORDS.

 SYMMETRIES FOR INITIAL GUESS ORBITALS FOLLOW.   BOTH SET(S).
    27 ORBITALS ARE OCCUPIED (    7 CORE ORBITALS).
     8=A        9=A       10=A       11=A       12=A       13=A       14=A   
    15=A       16=A       17=A       18=A       19=A       20=A       21=A   
    22=A       23=A       24=A       25=A       26=A       27=A       28=A   
    29=A       30=A       31=A       32=A       33=A       34=A       35=A   
    36=A       37=A   
 ...... END OF INITIAL ORBITAL SELECTION ......
 STEP CPU TIME =     0.02 TOTAL CPU TIME =          0.1 (      0.0 MIN)
 TOTAL WALL CLOCK TIME=          0.2 SECONDS, CPU UTILIZATION IS    80.00%

                    ----------------------
                    AO INTEGRAL TECHNOLOGY
                    ----------------------
     S,P,L SHELL ROTATED AXIS INTEGRALS, REPROGRAMMED BY
        KAZUYA ISHIMURA (IMS) AND JOSE SIERRA (SYNSTAR).
     S,P,D,L SHELL ROTATED AXIS INTEGRALS PROGRAMMED BY
        KAZUYA ISHIMURA (INSTITUTE FOR MOLECULAR SCIENCE).
     S,P,D,F,G SHELL TO TOTAL QUARTET ANGULAR MOMENTUM SUM 5,
        ERIC PROGRAM BY GRAHAM FLETCHER (ELORET AND NASA ADVANCED
        SUPERCOMPUTING DIVISION, AMES RESEARCH CENTER).
     S,P,D,F,G,L SHELL GENERAL RYS QUADRATURE PROGRAMMED BY
        MICHEL DUPUIS (PACIFIC NORTHWEST NATIONAL LABORATORY).

          --------------------
          2 ELECTRON INTEGRALS
          --------------------

 THE -PK- OPTION IS OFF, THE INTEGRALS ARE NOT IN SUPERMATRIX FORM.
 STORING   15000 INTEGRALS/RECORD ON DISK, USING 12 BYTES/INTEGRAL.
 TWO ELECTRON INTEGRAL EVALUATION REQUIRES   89734 WORDS OF MEMORY.
 SCHWARZ INEQUALITY OVERHEAD:      1164 INTEGRALS, T=        0.00
 II,JST,KST,LST =  1  1  1  1 NREC =         1 INTLOC =    1
 II,JST,KST,LST =  2  1  1  1 NREC =         1 INTLOC =    2
 II,JST,KST,LST =  3  1  1  1 NREC =         1 INTLOC =   34
 II,JST,KST,LST =  4  1  1  1 NREC =         1 INTLOC =  139
 II,JST,KST,LST =  5  1  1  1 NREC =         1 INTLOC = 1355
 II,JST,KST,LST =  6  1  1  1 NREC =         1 INTLOC = 1928
 II,JST,KST,LST =  7  1  1  1 NREC =         1 INTLOC = 6796
 II,JST,KST,LST =  8  1  1  1 NREC =         1 INTLOC = 8474
 II,JST,KST,LST =  9  1  1  1 NREC =         2 INTLOC = 5884
 II,JST,KST,LST = 10  1  1  1 NREC =         2 INTLOC = 9470
 II,JST,KST,LST = 11  1  1  1 NREC =         4 INTLOC = 4326
 II,JST,KST,LST = 12  1  1  1 NREC =         4 INTLOC =11510
 II,JST,KST,LST = 13  1  1  1 NREC =         7 INTLOC =11552
 II,JST,KST,LST = 14  1  1  1 NREC =         8 INTLOC =11029
 II,JST,KST,LST = 15  1  1  1 NREC =         9 INTLOC =11733
 II,JST,KST,LST = 16  1  1  1 NREC =        10 INTLOC =14060
 II,JST,KST,LST = 17  1  1  1 NREC =        12 INTLOC = 3161
 II,JST,KST,LST = 18  1  1  1 NREC =        13 INTLOC = 8735
 II,JST,KST,LST = 19  1  1  1 NREC =        15 INTLOC = 1522
 II,JST,KST,LST = 20  1  1  1 NREC =        16 INTLOC =11309
 II,JST,KST,LST = 21  1  1  1 NREC =        18 INTLOC = 7613
 II,JST,KST,LST = 22  1  1  1 NREC =        20 INTLOC = 6015
 II,JST,KST,LST = 23  1  1  1 NREC =        22 INTLOC = 7163
 II,JST,KST,LST = 24  1  1  1 NREC =        24 INTLOC = 4380
 II,JST,KST,LST = 25  1  1  1 NREC =        34 INTLOC =14692
 II,JST,KST,LST = 26  1  1  1 NREC =        38 INTLOC = 1940
 II,JST,KST,LST = 27  1  1  1 NREC =        41 INTLOC = 7332
 SCHWARZ INEQUALITY TEST SKIPPED        7919 INTEGRAL BLOCKS.
 TOTAL NUMBER OF NONZERO TWO-ELECTRON INTEGRALS =              660170
         45 INTEGRAL RECORDS WERE STORED ON DISK FILE  8.
  ...... END OF TWO-ELECTRON INTEGRALS .....
 STEP CPU TIME =     0.19 TOTAL CPU TIME =          0.3 (      0.0 MIN)
 TOTAL WALL CLOCK TIME=          0.3 SECONDS, CPU UTILIZATION IS    91.18%

          --------------------------
                 RHF SCF CALCULATION
          --------------------------

     NUCLEAR ENERGY =       303.0522770700
     MAXIT =   30     NPUNCH=    2
     EXTRAP=T  DAMP=F  SHIFT=F  RSTRCT=F  DIIS=F  DEM=F  SOSCF=T
     DENSITY MATRIX CONV=  1.00E-05
     SOSCF WILL OPTIMIZE     567 ORBITAL ROTATIONS, SOGTOL=   0.250
     MEMORY REQUIRED FOR RHF ITERS=     49068 WORDS.

 ITER EX DEM     TOTAL ENERGY        E CHANGE  DENSITY CHANGE     ORB. GRAD
   1  0  0     -255.8128757492  -255.8128757492   0.324918286   0.000000000
          ---------------START SECOND ORDER SCF---------------
   2  1  0     -256.1496248894    -0.3367491402   0.082188221   0.022779208
   3  2  0     -256.1652037817    -0.0155788923   0.037386933   0.008624202
   4  3  0     -256.1673799301    -0.0021761484   0.005034418   0.001173680
   5  4  0     -256.1674313030    -0.0000513729   0.000836559   0.000356508
   6  5  0     -256.1674348311    -0.0000035281   0.000557027   0.000100430
   7  6  0     -256.1674354760    -0.0000006449   0.000182208   0.000040870
   8  7  0     -256.1674355265    -0.0000000504   0.000044822   0.000009521
   9  8  0     -256.1674355329    -0.0000000064   0.000010484   0.000003370
  10  9  0     -256.1674355333    -0.0000000004   0.000003161   0.000000725
  11 10  0     -256.1674355333    -0.0000000000   0.000001010   0.000000259

          -----------------
          DENSITY CONVERGED
          -----------------
     TIME TO FORM FOCK OPERATORS=       0.1 SECONDS (       0.0 SEC/ITER)
     TIME TO SOLVE SCF EQUATIONS=       0.0 SECONDS (       0.0 SEC/ITER)

 FINAL RHF ENERGY IS     -256.1674355333 AFTER  11 ITERATIONS

          ------------
          EIGENVECTORS
          ------------

                      1          2          3          4          5
                  -11.1077   -11.0642   -11.0609   -11.0528   -11.0509
                     A          A          A          A          A   
    1  C  1  S   -0.000529  -0.000191  -0.004371   0.988349   0.084326
    2  C  1  S    0.000112  -0.000038   0.000017   0.037654  -0.002344
    3  C  1  X    0.000006  -0.000021  -0.000152  -0.000052   0.002184
    4  C  1  Y    0.000030   0.000014  -0.000022  -0.000244   0.003214
    5  C  1  Z   -0.000081  -0.000036  -0.000090  -0.000019  -0.001438
    6  C  2  S   -0.000633   0.000149  -0.015531  -0.083396   0.988345
    7  C  2  S    0.000102   0.000018  -0.006104  -0.008695   0.036452
    8  C  2  X   -0.000110   0.000009  -0.002793  -0.001989  -0.000419
    9  C  2  Y   -0.000035  -0.000021   0.002678  -0.003305  -0.000430
   10  C  2  Z    0.000172  -0.000019  -0.001481   0.001452  -0.000081
   11  C  3  S   -0.002985  -0.002787   0.991830   0.003013   0.016849
   12  C  3  S   -0.005432   0.000047   0.037183   0.000656  -0.004943
   13  C  3  X   -0.003302   0.000018   0.000080  -0.000362   0.002949
   14  C  3  Y   -0.000978  -0.000120  -0.000118   0.000092  -0.002576
   15  C  3  Z    0.002014  -0.000041   0.000063  -0.000150   0.001408
   16  C  4  S    0.992314   0.003928   0.003980   0.000547   0.000824
   17  C  4  S    0.034505  -0.005500  -0.005438   0.000199   0.000059
   18  C  4  X   -0.000852  -0.002347   0.003508  -0.000043   0.000120
   19  C  4  Y    0.001392   0.003020   0.001140   0.000040  -0.000014
   20  C  4  Z   -0.001188   0.001990  -0.002035  -0.000073   0.000044
   21  C  5  S   -0.002964   0.991946   0.002785   0.000215  -0.000093
   22  C  5  S   -0.005422   0.037761   0.000265  -0.000031  -0.000016
   23  C  5  X    0.002240   0.000019  -0.000068   0.000007  -0.000013
   24  C  5  Y   -0.002880  -0.000099  -0.000046  -0.000040  -0.000008
   25  C  5  Z   -0.001673  -0.000234   0.000062   0.000001  -0.000030
   26  C  6  S    0.002444  -0.000495  -0.001118  -0.005124  -0.002482
   27  C  6  S   -0.006450   0.000123   0.000119  -0.005964  -0.000521
   28  C  6  X   -0.000411   0.000047   0.000023   0.003873   0.000414
   29  C  6  Y    0.004123  -0.000023  -0.000011  -0.001596   0.000030
   30  C  6  Z   -0.001503  -0.000093  -0.000065  -0.000776  -0.000093
   31  H  7  S    0.000092  -0.000127  -0.000071   0.000141  -0.000032
   32  H  8  S    0.000029   0.000008   0.000044  -0.006954  -0.000512
   33  H  9  S   -0.000045  -0.000008  -0.000065  -0.006994  -0.000466
   34  H 10  S   -0.000012   0.000008   0.000187   0.000676  -0.007018
   35  H 11  S   -0.000103   0.000007   0.000231   0.000717  -0.006950
   36  H 12  S    0.000052  -0.000168  -0.007009  -0.000124   0.000006
   37  H 13  S    0.000035   0.000040  -0.006997  -0.000015  -0.000032
   38  H 14  S    0.000028  -0.006950  -0.000079  -0.000004  -0.000015
   39  H 15  S    0.000035  -0.006982  -0.000069  -0.000019   0.000000
   40  H 16  S   -0.000076  -0.006997  -0.000017   0.000006   0.000002
   41  B 17  S    0.000312  -0.000005   0.000001   0.000002  -0.000003
   42  B 17  S   -0.001985   0.000058   0.000040   0.000049   0.000016
   43  B 17  X    0.001065  -0.000021   0.000035   0.000039  -0.000016
   44  B 17  Y    0.001802  -0.000038  -0.000023   0.000022  -0.000002
   45  B 17  Z    0.000887  -0.000002   0.000002  -0.000057   0.000009
   46  H 18  S   -0.001204  -0.000206  -0.000042   0.000012  -0.000043
   47  H 19  S    0.000070  -0.000020   0.000011   0.000030  -0.000007
   48  H 20  S    0.000094   0.000050  -0.000035  -0.000049  -0.000000

                      6          7          8          9         10
                  -11.0281    -7.3792    -1.1036    -0.9850    -0.9314
                     A          A          A          A          A   
    1  C  1  S    0.006290   0.000017  -0.089507   0.098152   0.102783
    2  C  1  S   -0.005331   0.000120   0.234291  -0.272675  -0.295938
    3  C  1  X   -0.003743  -0.000051   0.023109   0.034076  -0.070243
    4  C  1  Y    0.001555   0.000128  -0.047232   0.032003  -0.020872
    5  C  1  Z    0.000822  -0.000042   0.007210  -0.017522   0.032826
    6  C  2  S    0.002121  -0.000006  -0.089723   0.115884  -0.068445
    7  C  2  S    0.000115   0.000056   0.233927  -0.322994   0.196371
    8  C  2  X   -0.000223   0.000026   0.050242  -0.018712   0.005801
    9  C  2  Y    0.000105   0.000002   0.000412  -0.024413  -0.095836
   10  C  2  Z    0.000137   0.000020  -0.003923   0.010303   0.049269
   11  C  3  S    0.001259   0.000014  -0.102708   0.027940  -0.148069
   12  C  3  S    0.000150   0.000076   0.270966  -0.075844   0.427837
   13  C  3  X    0.000033   0.000010   0.019352   0.075222  -0.027726
   14  C  3  Y   -0.000172  -0.000141   0.037692  -0.035351  -0.013418
   15  C  3  Z    0.000008   0.000099  -0.037636  -0.003467   0.005415
   16  C  4  S   -0.001768   0.000398  -0.132575  -0.101065   0.002349
   17  C  4  S   -0.006770  -0.002213   0.354327   0.288451  -0.005337
   18  C  4  X    0.000876  -0.001294  -0.044501   0.066867  -0.049096
   19  C  4  Y   -0.003774  -0.001296   0.043814  -0.038781  -0.130007
   20  C  4  Z    0.002375  -0.001214  -0.020118  -0.056413   0.075609
   21  C  5  S    0.000535   0.000002  -0.057458  -0.146240  -0.027375
   22  C  5  S    0.000244   0.000133   0.153946   0.409091   0.078548
   23  C  5  X   -0.000048   0.000068  -0.025814  -0.022587  -0.009086
   24  C  5  Y   -0.000023   0.000008   0.030639   0.031506  -0.016390
   25  C  5  Z    0.000060   0.000005   0.016795   0.013700   0.010050
   26  C  6  S    0.992122   0.000459  -0.111796  -0.017815   0.129812
   27  C  6  S    0.035819  -0.002574   0.285213   0.049800  -0.366535
   28  C  6  X    0.000055  -0.001582  -0.026618   0.069316   0.026612
   29  C  6  Y   -0.001799  -0.000889  -0.059795  -0.068488  -0.007989
   30  C  6  Z    0.000563  -0.001792   0.041435   0.004079  -0.003532
   31  H  7  S   -0.006796  -0.000164   0.052566   0.020280  -0.108054
   32  H  8  S   -0.000085  -0.000349   0.043531  -0.066975  -0.080609
   33  H  9  S   -0.000027  -0.000058   0.042451  -0.068628  -0.086922
   34  H 10  S   -0.000031  -0.000017   0.046672  -0.080957   0.056594
   35  H 11  S   -0.000134   0.000001   0.042009  -0.081545   0.059702
   36  H 12  S   -0.000073  -0.000057   0.051600  -0.011963   0.132819
   37  H 13  S    0.000008  -0.000256   0.051499  -0.020219   0.120841
   38  H 14  S   -0.000104   0.000102   0.028551   0.099491   0.032035
   39  H 15  S   -0.000020  -0.000317   0.029696   0.103606   0.012687
   40  H 16  S   -0.000086  -0.000040   0.031973   0.103952   0.022827
   41  B 17  S    0.000387   0.990872  -0.018009  -0.012293   0.018262
   42  B 17  S   -0.002554   0.036360   0.033769   0.025639  -0.038108
   43  B 17  X    0.001533  -0.000323  -0.012311  -0.003720   0.012395
   44  B 17  Y   -0.000236   0.000407  -0.007741  -0.010992  -0.002161
   45  B 17  Z    0.001943  -0.000557  -0.011621  -0.008539   0.017691
   46  H 18  S    0.000080  -0.002514   0.013347   0.017889   0.004312
   47  H 19  S    0.000305  -0.006342   0.009128   0.002899  -0.011914
   48  H 20  S    0.000314  -0.006358   0.007438   0.008660  -0.012575

                     11         12         13         14         15
                   -0.8819    -0.7652    -0.6854    -0.6499    -0.6199
                     A          A          A          A          A   
    1  C  1  S   -0.085193   0.107632  -0.028273   0.000225   0.009720
    2  C  1  S    0.249904  -0.334554   0.089870  -0.000023  -0.029279
    3  C  1  X   -0.083700  -0.031223  -0.121484  -0.010028   0.163730
    4  C  1  Y    0.007135  -0.138523  -0.011720   0.102986  -0.176272
    5  C  1  Z    0.011073   0.032065   0.085341   0.155211   0.153693
    6  C  2  S   -0.082414  -0.122983  -0.004694  -0.006726  -0.001040
    7  C  2  S    0.242851   0.384385   0.016252   0.021392   0.008502
    8  C  2  X   -0.042232  -0.130032   0.025267  -0.054661   0.222181
    9  C  2  Y    0.067364  -0.048060   0.120722   0.076966   0.022302
   10  C  2  Z   -0.032409  -0.006428  -0.057274   0.175843   0.099523
   11  C  3  S    0.069740   0.082668   0.052985  -0.001049  -0.006113
   12  C  3  S   -0.205505  -0.259288  -0.169972   0.003217   0.021836
   13  C  3  X   -0.067956  -0.094838   0.174115  -0.007002  -0.032859
   14  C  3  Y    0.010472   0.098490   0.111484   0.067442   0.241744
   15  C  3  Z   -0.005870  -0.071735  -0.116964   0.202153   0.016378
   16  C  4  S    0.068323  -0.023841  -0.117512   0.015654   0.049245
   17  C  4  S   -0.207497   0.073303   0.399260  -0.049603  -0.181090
   18  C  4  X    0.102603   0.069861  -0.034160   0.135558  -0.170845
   19  C  4  Y   -0.132975   0.129996  -0.043058   0.079890   0.180992
   20  C  4  Z   -0.039366  -0.105715   0.053501   0.112099   0.031752
   21  C  5  S   -0.146420   0.012581   0.026080  -0.005097  -0.025949
   22  C  5  S    0.428154  -0.039249  -0.081072   0.016749   0.085175
   23  C  5  X    0.033449   0.007092  -0.094748   0.125949   0.118601
   24  C  5  Y   -0.046197   0.057376   0.086328   0.008579  -0.168243
   25  C  5  Z   -0.029657  -0.017204   0.106881   0.042575  -0.160843
   26  C  6  S    0.071415  -0.041758   0.101340   0.015324  -0.022952
   27  C  6  S   -0.203327   0.125255  -0.332275  -0.046344   0.073712
   28  C  6  X   -0.050748   0.120281  -0.075987   0.116685  -0.164941
   29  C  6  Y    0.076436  -0.113612  -0.164250   0.068629  -0.035625
   30  C  6  Z   -0.034162  -0.008520   0.204496   0.113468   0.137793
   31  H  7  S   -0.054529   0.068708  -0.310136  -0.026078  -0.116054
   32  H  8  S    0.080129  -0.162372   0.065915   0.135819  -0.031644
   33  H  9  S    0.090441  -0.153998   0.014491  -0.065568  -0.214444
   34  H 10  S    0.081829   0.187512  -0.010683  -0.096436  -0.153748
   35  H 11  S    0.084925   0.174723  -0.012813   0.141312  -0.049762
   36  H 12  S   -0.055264  -0.127173  -0.154466  -0.074709  -0.165708
   37  H 13  S   -0.067824  -0.130473  -0.121476   0.158051   0.035539
   38  H 14  S    0.139363  -0.049227  -0.045523   0.033636   0.071116
   39  H 15  S    0.137445   0.008100  -0.091838   0.088232   0.096306
   40  H 16  S    0.138845  -0.017008  -0.081036  -0.070183   0.131968
   41  B 17  S    0.022811  -0.018518  -0.005294  -0.150024   0.042867
   42  B 17  S   -0.049401   0.041423   0.014497   0.373970  -0.109554
   43  B 17  X    0.016705   0.000721  -0.012789  -0.007166  -0.042077
   44  B 17  Y    0.007446  -0.006193  -0.031129   0.018571   0.010269
   45  B 17  Z    0.014184  -0.021752   0.020314  -0.002734   0.014600
   46  H 18  S   -0.010888  -0.004689   0.045584   0.091665  -0.057460
   47  H 19  S   -0.015627   0.004596   0.009017   0.205324  -0.030217
   48  H 20  S   -0.012815   0.023645  -0.013285   0.192576  -0.087464

                     16         17         18         19         20
                   -0.5920    -0.5566    -0.5547    -0.5323    -0.4915
                     A          A          A          A          A   
    1  C  1  S    0.002690   0.010778  -0.011553  -0.005999  -0.010120
    2  C  1  S   -0.008413  -0.035432   0.040096   0.020938   0.042289
    3  C  1  X    0.063726   0.044913  -0.095091   0.145870  -0.044732
    4  C  1  Y   -0.128574  -0.092024  -0.065248   0.118145  -0.171923
    5  C  1  Z   -0.119441  -0.073031  -0.174774   0.287343   0.077297
    6  C  2  S   -0.000850  -0.011901   0.008751   0.001007  -0.025057
    7  C  2  S    0.004496   0.041113  -0.028864  -0.002911   0.102262
    8  C  2  X    0.081710  -0.040413   0.081125   0.030167   0.344345
    9  C  2  Y   -0.133993   0.040985  -0.035693  -0.096776   0.077928
[...]
 18   H            X -0.00142817  0.00828371 -0.16131111 -0.03287901 -0.00671957
                   Y  0.00343859  0.00275257  0.82972824  0.14661255  0.00306576
                   Z -0.00484740  0.00291308 -0.42809864 -0.08173328  0.00447464
 19   H            X  0.00708077  0.00172187  0.07428538 -0.32455273  0.32409887
                   Y -0.00240032 -0.00011849 -0.09026779  0.36450596 -0.35813752
                   Z  0.00241112 -0.00223131 -0.08177424  0.46192709 -0.45142179
 20   H            X  0.00333100  0.00370974 -0.12074356  0.60428413  0.58839900
                   Y -0.00206665 -0.00075065 -0.05420282  0.19070225  0.18445300
                   Z  0.01179264  0.00933144  0.06124595 -0.23041636 -0.22990957

 TRANS. SAYVETZ    X -0.00000040  0.00000065  0.00000136 -0.00000009  0.00000001
                   Y -0.00000011 -0.00000001  0.00000071 -0.00000018 -0.00000003
                   Z  0.00000012  0.00000008  0.00000000 -0.00000011 -0.00000003
               TOTAL  0.00000043  0.00000065  0.00000153  0.00000022  0.00000004

   ROT. SAYVETZ    X -0.00006645 -0.00005904 -0.00006601  0.00005393 -0.00001648
                   Y  0.00023670  0.00032983  0.00002761 -0.00002931 -0.00003076
                   Z  0.00000082 -0.00013153  0.00006358  0.00006561  0.00000466
               TOTAL  0.00024585  0.00035997  0.00009572  0.00008985  0.00003520

                           51          52          53          54          55
       FREQUENCY:      3572.45     3618.84     3623.37     3628.85     3735.14  
        SYMMETRY:         A           A           A           A           A   
    REDUCED MASS:      1.03885     1.06573     1.06686     1.06987     1.11234
    IR INTENSITY:      0.00995     0.02880     0.04968     0.04065     0.01013

  1   C            X -0.00003580 -0.02099155  0.01321910 -0.00695233 -0.01760218
                   Y  0.00009303  0.04704236 -0.03683220  0.02107296 -0.02791996
                   Z -0.00003431 -0.01564050  0.01136018 -0.00602057 -0.07479252
  2   C            X -0.00008783  0.04386095  0.03845867 -0.03964747 -0.00322604
                   Y -0.00000869  0.00438480  0.00801934 -0.00511246  0.01565926
                   Z  0.00002216  0.00200533  0.00040566 -0.00356554  0.03540522
  3   C            X -0.00012715 -0.00296187 -0.00654934 -0.00511730 -0.00225004
                   Y  0.00005001 -0.00765118 -0.03445093 -0.04446758 -0.00567388
                   Z  0.00004418  0.00498909  0.02440865  0.03356787 -0.00669915
  4   C            X -0.00192141  0.00042630  0.00065123  0.00176053  0.00009612
                   Y  0.00176777  0.00021511  0.00067385  0.00037463  0.00090616
                   Z  0.00080613 -0.00031861 -0.00086175 -0.00109694 -0.00035728
  5   C            X  0.02360269 -0.00002562  0.00016636  0.00009119  0.00019823
                   Y -0.03871176 -0.00001345  0.00002478  0.00020946  0.00010436
                   Z -0.02556310  0.00006591  0.00006719  0.00017351 -0.00010803
  6   C            X  0.00003461  0.00055835 -0.00019980  0.00014661 -0.00775918
                   Y  0.00030147 -0.00182943  0.00120192 -0.00073524 -0.00500267
                   Z -0.00003719  0.00118470 -0.00114191  0.00096403  0.01367604
  7   H            X -0.00164472  0.00957948 -0.00958863  0.00939080  0.08870264
                   Y -0.00122509  0.00666636 -0.00517774  0.00608080  0.05158856
                   Z  0.00276805 -0.01425616  0.01397829 -0.01489848 -0.14824116
  8   H            X  0.00002354 -0.00237874  0.00036629  0.00025052 -0.00236503
                   Y -0.00103149 -0.36518290  0.27617713 -0.15433318  0.48906680
                   Z -0.00090937 -0.30595926  0.23367806 -0.13113673  0.40323676
  9   H            X  0.00022861  0.22330666 -0.16244360  0.08749843  0.21683380
                   Y -0.00017103 -0.16646772  0.12038837 -0.06390044 -0.16470187
                   Z  0.00085350  0.48738680 -0.35689768  0.19159431  0.47131232
 10   H            X  0.00041950 -0.26086944 -0.22879793  0.23140849 -0.13933465
                   Y  0.00036559 -0.18097078 -0.15503111  0.16220535 -0.09488328
                   Z  0.00057947 -0.32758530 -0.28952828  0.29360028 -0.17717251
 11   H            X  0.00061306 -0.23555686 -0.20141507  0.19145779  0.17809278
                   Y -0.00031908  0.11158467  0.09552310 -0.09243438 -0.08329265
                   Z -0.00090429  0.31103847  0.26756211 -0.25638910 -0.23100816
 12   H            X  0.00029995  0.02918517  0.12157060  0.14937005  0.01829512
                   Y  0.00116449  0.09633299  0.41239132  0.50692764  0.06070375
                   Z  0.00035270  0.02544742  0.11198122  0.13983619  0.01611801
 13   H            X  0.00021217 -0.01494985 -0.06421112 -0.08145731  0.00907216
                   Y  0.00010044 -0.00275645 -0.01653514 -0.02353264  0.00298579
                   Z -0.00042865 -0.08444212 -0.38671068 -0.50650101  0.06053262
 14   H            X -0.11820372  0.00001158 -0.00027271 -0.00007008  0.00010311
                   Y  0.37962164 -0.00021385  0.00063862 -0.00043278 -0.00031396
                   Z -0.36711026 -0.00000826 -0.00056248  0.00052401  0.00026254
 15   H            X -0.43855190  0.00015134 -0.00078446  0.00004972 -0.00223466
                   Y -0.21550594  0.00025675 -0.00031906  0.00023883 -0.00107426
                   Z  0.17032760 -0.00000395  0.00039630  0.00006144  0.00088893
 16   H            X  0.30083712 -0.00014875 -0.00006481 -0.00106876 -0.00021578
                   Y  0.26838674 -0.00014973  0.00002517 -0.00094568 -0.00030015
                   Z  0.48650086 -0.00025072 -0.00015334 -0.00189470 -0.00046410
 17   B            X -0.00009290  0.00016482  0.00006636  0.00036971 -0.00001325
                   Y -0.00006444  0.00000484 -0.00023809 -0.00032338 -0.00000015
                   Z  0.00014112  0.00017332 -0.00013956  0.00008146 -0.00048570
 18   H            X  0.00044744  0.00020235  0.00145053  0.00192345 -0.00067326
                   Y  0.00336950 -0.00023362  0.00365810  0.00424338 -0.00046006
                   Z  0.00124512 -0.00049025 -0.00128859 -0.00215605 -0.00033707
 19   H            X -0.00027793  0.00127598 -0.00184836 -0.00075037 -0.00216332
                   Y  0.00031283 -0.00088508  0.00127061  0.00038725  0.00186075
                   Z  0.00046647 -0.00071945  0.00147953  0.00075452  0.00128776
 20   H            X  0.00103018 -0.00006378  0.00062227 -0.00004853 -0.00029679
                   Y  0.00033098  0.00011511  0.00023247  0.00025677 -0.00009998
                   Z -0.00044474 -0.00020062 -0.00007596 -0.00031463  0.00033522

 TRANS. SAYVETZ    X -0.00000002  0.00000008  0.00000025  0.00000006  0.00000014
                   Y -0.00000089  0.00000003 -0.00000045 -0.00000030  0.00000002
                   Z -0.00000037 -0.00000003  0.00000024  0.00000011  0.00000001
               TOTAL  0.00000097  0.00000009  0.00000057  0.00000032  0.00000014

   ROT. SAYVETZ    X  0.00012373  0.00046305 -0.00116778 -0.00041452  0.00001626
                   Y -0.00015803  0.00111979  0.00065492 -0.00022708 -0.00007515
                   Z -0.00008657 -0.00060587 -0.00008221  0.00020476  0.00011499
               TOTAL  0.00021858  0.00135478  0.00134142  0.00051509  0.00013833

                           56          57          58          59          60
       FREQUENCY:      3738.15     3740.32     3745.23     3745.75     3770.94  
        SYMMETRY:         A           A           A           A           A   
    REDUCED MASS:      1.09716     1.11189     1.10861     1.10829     1.11072
    IR INTENSITY:      0.14878     0.04969     0.01486     0.01907     0.03390

  1   C            X -0.00735282  0.00618428 -0.00420851 -0.00329660  0.00000956
                   Y -0.00399880  0.01124255 -0.00680378 -0.00482281 -0.00000206
                   Z -0.01665402  0.02683632 -0.01722709 -0.01260979 -0.00009745
  2   C            X -0.00133560 -0.00428370  0.00294041  0.00188553 -0.00001181
                   Y  0.00112870  0.02153782 -0.02130069 -0.01470164  0.00001245
                   Z  0.00303676  0.04883800 -0.04819828 -0.03324102 -0.00003395
  3   C            X  0.00180356 -0.01768691 -0.01231054 -0.00994577 -0.00018459
                   Y  0.00308905 -0.03932213 -0.02592702 -0.02150940 -0.00098214
                   Z  0.00580886 -0.05298452 -0.03688637 -0.02994819 -0.00120535
  4   C            X -0.00018966  0.00026036 -0.00037056  0.00009072  0.00019006
                   Y -0.00401238 -0.00031758  0.00073791 -0.00079730  0.00008271
                   Z  0.00099309  0.00036526  0.00028420 -0.00028484 -0.00025049
  5   C            X  0.00263257  0.00305156  0.03736342 -0.04919468 -0.04560839
                   Y  0.00034331  0.00087279  0.00341072 -0.00358513 -0.06363974
                   Z  0.00345104  0.00237062  0.03911211 -0.05306308  0.04790686
  6   C            X  0.04113268  0.00436653 -0.00071290  0.00232145 -0.00022792
                   Y  0.02585090  0.00267243 -0.00037797  0.00129724  0.00016813
                   Z -0.06784559 -0.00734666  0.00113618 -0.00368349  0.00026408
  7   H            X -0.45985500 -0.04741254  0.00598074 -0.02525112  0.00103099
                   Y -0.26079375 -0.02741346  0.00381773 -0.01386076  0.00074335
                   Z  0.76128029  0.07831272 -0.01153223  0.04120398 -0.00197340
  8   H            X -0.00103276  0.00011833  0.00004711  0.00010790  0.00000546
                   Y  0.09772884 -0.18821470  0.12033169  0.08654880  0.00051990
                   Z  0.07932973 -0.15263948  0.09667471  0.06957805  0.00039972
  9   H            X  0.05971757 -0.07611352  0.04991299  0.03710718  0.00014445
                   Y -0.04462446  0.05895537 -0.03870524 -0.02869842 -0.00011203
                   Z  0.12457710 -0.16791839  0.11013889  0.08161909  0.00043854
 10   H            X -0.00771013 -0.19938173  0.21133946  0.14699037  0.00040237
                   Y -0.00459326 -0.14008279  0.14221361  0.09861523  0.00017346
                   Z -0.01029162 -0.24856133  0.25979602  0.18040344  0.00042401
 11   H            X  0.01719559  0.24616119 -0.23964863 -0.16482410  0.00007859
                   Y -0.00849855 -0.11227501  0.11078414  0.07622901  0.00000066
                   Z -0.02256374 -0.32030282  0.31100016  0.21388957 -0.00004887
 12   H            X -0.01161669  0.12984884  0.08637309  0.07138980  0.00271839
                   Y -0.03891909  0.44231368  0.29812855  0.24579599  0.00884148
                   Z -0.01055528  0.11710750  0.07917219  0.06514648  0.00231966
 13   H            X -0.00915833  0.07999601  0.05861579  0.04715808  0.00198587
                   Y -0.00179814  0.01799777  0.00994792  0.00843198  0.00049679
                   Z -0.05465086  0.50390017  0.35913902  0.29084359  0.00944169
 14   H            X -0.00556502 -0.00330110 -0.06489966  0.08897125 -0.12695710
                   Y  0.01865308  0.01132682  0.21968840 -0.30056184  0.41156847
                   Z -0.01677021 -0.01057179 -0.20914957  0.28642225 -0.39882518
 15   H            X -0.00990905 -0.01773782 -0.17086305  0.21767790  0.62125710
                   Y -0.00477670 -0.00833466 -0.08430222  0.10816716  0.30614668
                   Z  0.00405537  0.00710878  0.06970868 -0.08889984 -0.24167110
 16   H            X -0.01718095 -0.01534419 -0.20465033  0.27239620  0.04413127
                   Y -0.01524593 -0.01346773 -0.18165296  0.24246826  0.03743967
                   Z -0.02767946 -0.02452832 -0.32776099  0.43681156  0.07538432
 17   B            X  0.00075311 -0.00006672 -0.00002179  0.00008770  0.00011146
                   Y -0.00084712  0.00022210  0.00005187  0.00013522 -0.00009304
                   Z  0.00111078  0.00013995 -0.00025419  0.00007555 -0.00000032
 18   H            X  0.00380739 -0.00061781 -0.00103476  0.00034402  0.00001261
                   Y  0.00563842 -0.00261677 -0.00255153  0.00042056  0.00172707
                   Z  0.00537772  0.00207594  0.00030354  0.00275263 -0.00041853
 19   H            X -0.00057987  0.00141352 -0.00060105  0.00019978  0.00010364
                   Y -0.00027959 -0.00114926  0.00022879  0.00032883 -0.00008321
                   Z  0.00199004 -0.00109034  0.00021875  0.00027320 -0.00019840
 20   H            X -0.00321040 -0.00036136 -0.00063443 -0.00097004 -0.00040443
                   Y  0.00004045 -0.00000475 -0.00004838 -0.00004394 -0.00011462
                   Z  0.00165068  0.00031489  0.00066251  0.00071976  0.00006703

 TRANS. SAYVETZ    X -0.00000060 -0.00000010 -0.00000004 -0.00000011  0.00000001
                   Y -0.00000006 -0.00000001 -0.00000008  0.00000000 -0.00000008
                   Z  0.00000020  0.00000012 -0.00000006  0.00000008  0.00000003
               TOTAL  0.00000064  0.00000015  0.00000011  0.00000013  0.00000009

   ROT. SAYVETZ    X -0.00009288  0.00000602 -0.00001447  0.00000836  0.00000679
                   Y  0.00007539 -0.00012922  0.00000792  0.00003462  0.00005526
                   Z -0.00002331 -0.00009058 -0.00007276 -0.00000648 -0.00001328
               TOTAL  0.00012187  0.00015793  0.00007461  0.00003620  0.00005724

 REFERENCE ON SAYVETZ CONDITIONS - A. SAYVETZ, J.CHEM.PHYS., 7, 383-389(1939).

 NOTE - THE MODES J,K ARE ORTHONORMALIZED ACCORDING TO
 SUM ON I   M(I) * (X(I,J)*X(I,K) + Y(I,J)*Y(I,K) + Z(I,J)*Z(I,K)) = DELTA(J,K)

  MODE FREQ(CM**-1)  SYMMETRY  RED. MASS  IR INTENS.
     1     712.797    A        1.848748    3.899528
     2       5.172    A        2.299598    0.006594
     3       4.185    A        3.062491    0.032069
     4       2.484    A        2.880543    0.098375
     5       0.026    A        4.804388    0.000002
     6       0.035    A        4.802306    0.000011
     7       0.101    A        4.793916    0.000099
     8       7.070    A        2.088211    0.079769
     9     211.906    A        1.868268    0.107991
    10     227.987    A        1.050929    0.006353
    11     324.916    A        2.145224    0.104079
    12     368.176    A        2.225843    0.188746
    13     443.797    A        2.278269    0.206418
    14     551.695    A        1.720429    0.305476
    15     600.406    A        1.918135    0.630640
    16     716.311    A        3.418977    0.379255
    17     754.848    A        2.171364    0.017339
    18     882.938    A        1.884905    0.031461
    19     926.350    A        1.817606    0.049581
    20    1002.082    A        1.899375    0.067212
    21    1025.767    A        1.577789    0.039694
    22    1065.617    A        1.468184    0.160136
    23    1095.037    A        2.174953    0.048245
    24    1132.912    A        1.679249    0.013516
    25    1173.861    A        1.414416    0.010469
    26    1216.291    A        1.352520    0.393799
    27    1244.336    A        1.364099    0.828239
    28    1269.692    A        1.579950    0.072065
    29    1324.243    A        1.863174    0.114722
    30    1369.222    A        1.339206    0.329955
    31    1416.839    A        1.526803    0.306521
    32    1454.956    A        1.161926    2.828141
    33    1475.264    A        1.216909    0.002528
    34    1494.756    A        1.206662    0.017777
    35    1510.426    A        1.425989    0.025235
    36    1529.634    A        1.103624    0.593355
    37    1550.635    A        1.074412    0.029816
    38    1607.476    A        1.918936    0.028115
    39    1622.582    A        1.905129    0.077620
    40    1636.925    A        1.620752    0.042482
    41    1708.016    A        1.294525    0.035277
    42    1774.832    A        2.142099    0.231639
    43    1797.711    A        1.092457    0.003750
    44    1800.330    A        1.085015    0.094175
    45    1810.490    A        1.332904    0.034179
    46    1821.534    A        1.106619    0.007291
    47    1839.072    A        1.117326    0.005535
    48    2894.013    A        1.058810    0.815882
    49    3156.705    A        1.063060    0.463343
    50    3310.138    A        1.134496    0.460447
    51    3572.450    A        1.038849    0.009948
    52    3618.845    A        1.065730    0.028802
    53    3623.374    A        1.066859    0.049683
    54    3628.846    A        1.069872    0.040653
    55    3735.137    A        1.112343    0.010134
    56    3738.152    A        1.097165    0.148782
    57    3740.321    A        1.111895    0.049687
    58    3745.228    A        1.108613    0.014863
    59    3745.746    A        1.108285    0.019067
    60    3770.938    A        1.110724    0.033903

     -------------------------------
     THERMOCHEMISTRY AT T=  298.15 K
     -------------------------------

 USING IDEAL GAS, RIGID ROTOR, HARMONIC NORMAL MODE APPROXIMATIONS.
 P=  1.01325E+05 PASCAL.
 ALL FREQUENCIES ARE SCALED BY   1.00000
 THE MOMENTS OF INERTIA ARE (IN AMU*BOHR**2)
            478.85568           733.15963           928.65865
 THE ROTATIONAL SYMMETRY NUMBER IS  1.0
 THE ROTATIONAL CONSTANTS ARE (IN GHZ)
      3.76541     2.45934     1.94160
   1 IMAGINARY FREQUENCY VIBRATION(S) IS(ARE) EXCLUDED
     FROM THE FOLLOWING THERMOCHEMICAL ANALYSIS.
      8 -     60 VIBRATIONAL MODES ARE USED IN THERMOCHEMISTRY.
 THE HARMONIC ZERO POINT ENERGY IS (SCALED BY   1.000)
        0.212022 HARTREE/MOLECULE    46533.415752 CM**-1/MOLECULE 
      133.045845 KCAL/MOL              556.663817 KJ/MOL

               Q               LN Q
 ELEC.     1.00000E+00       0.000000
 TRANS.    3.70351E+07      17.427377
 ROT.      2.04395E+05      12.227812
 VIB.      1.56788E+02       5.054896
 TOT.      1.18686E+15      34.710085

              E         H         G         CV        CP        S
           KJ/MOL    KJ/MOL    KJ/MOL   J/MOL-K   J/MOL-K   J/MOL-K
 ELEC.      0.000     0.000     0.000     0.000     0.000     0.000
 TRANS.     3.718     6.197   -43.201    12.472    20.786   165.684
 ROT.       3.718     3.718   -30.312    12.472    12.472   114.139
 VIB.     566.965   566.965   544.133    76.529    76.529    76.578
 TOTAL    574.402   576.881   470.620   101.472   109.786   356.401
 VIB. THERMAL CORRECTION E(T)-E(0) = H(T)-H(0) =     10300.960 J/MOL

              E         H         G         CV        CP        S
         KCAL/MOL  KCAL/MOL  KCAL/MOL CAL/MOL-K CAL/MOL-K CAL/MOL-K
 ELEC.      0.000     0.000     0.000     0.000     0.000     0.000
 TRANS.     0.889     1.481   -10.325     2.981     4.968    39.600
 ROT.       0.889     0.889    -7.245     2.981     2.981    27.280
 VIB.     135.508   135.508   130.051    18.291    18.291    18.303
 TOTAL    137.285   137.878   112.481    24.252    26.240    85.182
 VIB. THERMAL CORRECTION E(T)-E(0) = H(T)-H(0) =      2461.989 CAL/MOL
 ......END OF NORMAL COORDINATE ANALYSIS......
 STEP CPU TIME =     0.01 TOTAL CPU TIME =         77.7 (      1.3 MIN)
 TOTAL WALL CLOCK TIME=         78.2 SECONDS, CPU UTILIZATION IS    99.31%
               580000  WORDS OF DYNAMIC MEMORY USED
 EXECUTION OF GAMESS TERMINATED NORMALLY Sat Nov 13 14:37:15 2021
 DDI: 263640 bytes (0.3 MB / 0 MWords) used by master data server.

 ----------------------------------------
 CPU timing information for all processes
 ========================================
 0: 76.395 + 1.329 = 77.725
 ----------------------------------------
 ddikick.x: exited gracefully.
----- accounting info -----
Files used on the master node chemcompute-node-0.novalocal were:
-rw-r--r--. 1 chemcomp chemcomp     1553 Nov 13 14:35 /scratch/305961/341862.F05
-rw-rw-r--. 1 chemcomp chemcomp  8100720 Nov 13 14:36 /scratch/305961/341862.F08
-rw-rw-r--. 1 chemcomp chemcomp 85196800 Nov 13 14:37 /scratch/305961/341862.F10
-rw-rw-r--. 1 chemcomp chemcomp   564960 Nov 13 14:37 /scratch/305961/341862.F18
Sat Nov 13 14:37:18 UTC 2021
0.123u 0.107s 1:21.78 0.2%	0+0k 8+216io 0pf+0w
Finishing Up...
Looking for IR data...
Looking for Raman data...
vibramans not found
Looking for thermodynamics data...
Looking for UV-Vis data...
305961
