----- GAMESS execution script 'rungms' -----
This job is running on host chemcompute-node-0.novalocal
under operating system Linux at Sat Nov 13 14:27:57 UTC 2021
SLURM has assigned the following compute nodes to this run:
chemcompute-node-0
Available scratch disk space (Kbyte units) at beginning of the job is
Filesystem     1K-blocks     Used Available Use% Mounted on
/dev/sda1       62903276 21347380  41555896  34% /
GAMESS temporary binary files will be written to /scratch/305958
GAMESS supplementary output files will be written to /data/slurm/341858
Copying input file 341858.inp to your run's scratch directory...
The generated host list is
chemcompute-node-0.novalocal

 Distributed Data Interface kickoff program.
 Initiating 1 compute processes on 1 nodes to run the following command:
 /data/gamess-2019R1-ddi/gamess.00.x 341858 

          ******************************************************
          *         GAMESS VERSION = 30 JUN 2019 (R1)          *
          *             FROM IOWA STATE UNIVERSITY             *
          * M.W.SCHMIDT, K.K.BALDRIDGE, J.A.BOATZ, S.T.ELBERT, *
          *   M.S.GORDON, J.H.JENSEN, S.KOSEKI, N.MATSUNAGA,   *
          *          K.A.NGUYEN, S.J.SU, T.L.WINDUS,           *
          *       TOGETHER WITH M.DUPUIS, J.A.MONTGOMERY       *
          *         J.COMPUT.CHEM.  14, 1347-1363(1993)        *
          **************** 64 BIT LINUX VERSION ****************

  SINCE 1993, STUDENTS AND POSTDOCS WORKING AT IOWA STATE UNIVERSITY
  AND ALSO IN THEIR VARIOUS JOBS AFTER LEAVING ISU HAVE MADE IMPORTANT
  CONTRIBUTIONS TO THE CODE:
     IVANA ADAMOVIC, CHRISTINE AIKENS, YURI ALEXEEV, POOJA ARORA,
     ANDREY ASADCHEV, ROB BELL, PRADIPTA BANDYOPADHYAY, JONATHAN BENTZ,
     COLLEEN BERTONI, BRETT BODE, KURT BRORSEN, CALEB CARLIN, GALINA CHABAN,
     WEI CHEN, CHEOL HO CHOI, PAUL DAY, ALBERT DEFUSCO, NUWAN DESILVA,
     TIM DUDLEY, DMITRI FEDOROV, ALEX FINDLATER, GRAHAM FLETCHER, 
     MARK FREITAG, KURT GLAESEMANN, ANASTASIA GUNINA,
     DAN KEMP, GRANT MERRILL, NORIYUKI MINEZAWA, JONATHAN MULLIN,
     TAKESHI NAGATA, SEAN NEDD, HEATHER NETZLOFF, BOSILJKA NJEGIC, RYAN OLSON,
     MIKE PAK, BUU PHAM,
     SPENCER PRUITT, LUKE ROSKOP, JIM SHOEMAKER, LYUDMILA SLIPCHENKO,
     TONY SMITH, SAROM SOK LEANG, JIE SONG, TETSUYA TAKETSUGU, SIMON WEBB,
     PENG XU, SOOHAENG YOO, FEDERICO ZAHARIEV

  ADDITIONAL CODE HAS BEEN PROVIDED BY COLLABORATORS IN OTHER GROUPS:
     IOWA STATE UNIVERSITY:
          JOE IVANIC, AARON WEST, LAIMUTIS BYTAUTAS, KLAUS RUEDENBERG
     UNIVERSITY OF TOKYO: KIMIHIKO HIRAO, TAKAHITO NAKAJIMA,
          TAKAO TSUNEDA, MUNEAKI KAMIYA, SUSUMU YANAGISAWA,
          KIYOSHI YAGI, MAHITO CHIBA, SEIKEN TOKURA, NAOAKI KAWAKAMI
     UNIVERSITY OF AARHUS: FRANK JENSEN
     UNIVERSITY OF IOWA: VISVALDAS KAIRYS, HUI LI
     NATIONAL INST. OF STANDARDS AND TECHNOLOGY: WALT STEVENS, DAVID GARMER
     UNIVERSITY OF PISA: BENEDETTA MENNUCCI, JACOPO TOMASI
     UNIVERSITY OF MEMPHIS: HENRY KURTZ, PRAKASHAN KORAMBATH
     UNIVERSITY OF ALBERTA: TOBY ZENG, MARIUSZ KLOBUKOWSKI
     UNIVERSITY OF NEW ENGLAND: MARK SPACKMAN
     MIE UNIVERSITY: HIROAKI UMEDA
     NAT. INST. OF ADVANCED INDUSTRIAL SCIENCE AND TECHNOLOGY: KAZUO KITAURA
     MICHIGAN STATE UNIVERSITY:
          KAROL KOWALSKI, MARTA WLOCH, JEFFREY GOUR, JESSE LUTZ,
          WEI LI, JUN SHEN, J. EMILIANO DEUSTUA, PIOTR PIECUCH
     UNIVERSITY OF MINNESOTA:
          YINAN SHU
     UNIVERSITY OF SILESIA: MONIKA MUSIAL, STANISLAW KUCHARSKI
     FACULTES UNIVERSITAIRES NOTRE-DAME DE LA PAIX:
          OLIVIER QUINET, BENOIT CHAMPAGNE
     UNIVERSITY OF CALIFORNIA - SANTA BARBARA: BERNARD KIRTMAN
     INSTITUTE FOR MOLECULAR SCIENCE:
          KAZUYA ISHIMURA, MICHIO KATOUDA, AND SHIGERU NAGASE
     UNIVERSITY OF NOTRE DAME: ANNA POMOGAEVA, DAN CHIPMAN
     KYUSHU UNIVERSITY:
          HARUYUKI NAKANO,
          FENG LONG GU, JACEK KORCHOWIEC, MARCIN MAKOWSKI, AND YURIKO AOKI,
          HIROTOSHI MORI AND EISAKU MIYOSHI
     PENNSYLVANIA STATE UNIVERSITY:
          TZVETELIN IORDANOV, CHET SWALINA, JONATHAN SKONE,
          SHARON HAMMES-SCHIFFER
     WASEDA UNIVERSITY:
          MASATO KOBAYASHI, TOMOKO AKAMA, TSUGUKI TOUMA,
          TAKESHI YOSHIKAWA, YASUHIRO IKABATA, JUNJI SEINO,
          YUYA NAKAJIMA, HIROMI NAKAI
     NANJING UNIVERSITY: SHUHUA LI
     UNIVERSITY OF NEBRASKA:
          PEIFENG SU, DEJUN SI, NANDUN THELLAMUREGE, YALI WANG, HUI LI
     UNIVERSITY OF ZURICH: ROBERTO PEVERATI, KIM BALDRIDGE
     N. COPERNICUS UNIVERSITY AND JACKSON STATE UNIVERSITY:
          MARIA BARYSZ
     UNIVERSITY OF COPENHAGEN: Jimmy Kromann, CASPER STEINMANN
     TOKYO INSTITUTE OF TECHNOLOGY: HIROYA NAKATA
     NAGOYA UNIVERSITY: YOSHIO NISHIMOTO, STEPHAN IRLE
     MOSCOW STATE UNIVERSITY: VLADIMIR MIRONOV
     A.N.NESMEYANOV INSTITUTE OF ORGANOELEMENT COMPOUNDS OF RUSSIAN ACADEMY OF SCIENCES:
          IGOR S. GERASIMOV

 EXECUTION OF GAMESS BEGUN Sat Nov 13 14:27:57 2021

            ECHO OF THE FIRST FEW INPUT CARDS -
 INPUT CARD>!File created by the GAMESS Input Deck Generator Plugin for Avogadro            
 INPUT CARD> $BASIS GBASIS=STO NGAUSS=3 $END                                                
 INPUT CARD> $CONTRL SCFTYP=RHF RUNTYP=OPTIMIZE NZVAR=1 mult=1  ICHARG=0 $END               
 INPUT CARD> $STATPT hssend=.t. OPTTOL=0.0005 NSTEP=50 $END                                 
 INPUT CARD> $STATPT HESS=calc ihrep=5 $END                                                 
 INPUT CARD> $FORCE nvib=2 $END                                                             
 INPUT CARD> $ZMAT DLC=.t. auto=.t. nonvdw(1)=6,17,4,18,17,18 $END                          
 INPUT CARD> $ZMAT IFZMAT(1)=1,6,17,1,4,18,1,17,18 fvalue(1)=2.08,2.01,1.98 $END            
 INPUT CARD>                                                                                
 INPUT CARD> $DATA                                                                          
 INPUT CARD>Title                                                                           
 INPUT CARD>C1                                                                              
 INPUT CARD>C     6.0    -0.24435     1.19760    -0.12571                                   
 INPUT CARD>C     6.0    -1.13708    -0.03726    -0.00529                                   
 INPUT CARD>C     6.0    -0.19016    -1.04245     0.62291                                   
 INPUT CARD>C     6.0     1.04772    -0.73989    -0.16949                                   
 INPUT CARD>C     6.0     1.96845    -1.77822    -0.75268                                   
 INPUT CARD>C     6.0     1.10475     0.58219    -0.48915                                   
 INPUT CARD>H     1.0     1.74245     0.87364    -1.34670                                   
 INPUT CARD>H     1.0    -0.18125     1.70322     0.86222                                   
 INPUT CARD>H     1.0    -0.63362     1.91113    -0.88209                                   
 INPUT CARD>H     1.0    -1.37896    -0.39549    -1.03383                                   
 INPUT CARD>H     1.0    -2.08888     0.12861     0.54238                                   
 INPUT CARD>H     1.0    -0.53929    -2.09522     0.56580                                   
 INPUT CARD>H     1.0    -0.03296    -0.75495     1.68654                                   
 INPUT CARD>H     1.0     1.66910    -2.79220    -0.41506                                   
 INPUT CARD>H     1.0     3.01490    -1.58912    -0.43440                                   
 INPUT CARD>H     1.0     1.91870    -1.74123    -1.86106                                   
 INPUT CARD>B     5.0     2.48195     1.44035     0.81084                                   
 INPUT CARD>H     1.0     2.21824    -0.42477     1.43124                                   
 INPUT CARD>H     1.0     2.08194     2.30645     1.51042                                   
 INPUT CARD>H     1.0     3.50347     1.66697     0.25573                                   
 INPUT CARD> $END                                                                           
    1000000 WORDS OF MEMORY AVAILABLE

     BASIS OPTIONS
     -------------
     GBASIS=STO          IGAUSS=       3      POLAR=NONE    
     NDFUNC=       0     NFFUNC=       0     DIFFSP=       F
     NPFUNC=       0      DIFFS=       F     BASNAM=        


     RUN TITLE
     ---------
 Title                                                                           

 THE POINT GROUP OF THE MOLECULE IS C1      
 THE ORDER OF THE PRINCIPAL AXIS IS     0

 ATOM      ATOMIC                      COORDINATES (BOHR)
           CHARGE         X                   Y                   Z
 C           6.0    -0.4617545451        2.2631358429       -0.2375574539
 C           6.0    -2.1487696261       -0.0704111903       -0.0099966505
 C           6.0    -0.3593502938       -1.9699448559        1.1771292150
 C           6.0     1.9799037119       -1.3981893611       -0.3202896577
 C           6.0     3.7198311205       -3.3603485459       -1.4223589564
 C           6.0     2.0876747849        1.1001795728       -0.9243594669
 H           1.0     3.2927530473        1.6509402119       -2.5448939877
 H           1.0    -0.3425128353        3.2186190968        1.6293595411
 H           1.0    -1.1973681803        3.6115120269       -1.6669083965
 H           1.0    -2.6058565480       -0.7473677309       -1.9536554179
 H           1.0    -3.9474108212        0.2430376593        1.0249495812
 H           1.0    -1.0191103279       -3.9593916840        1.0692069639
 H           1.0    -0.0622853686       -1.4266486344        3.1870984673
 H           1.0     3.1541416461       -5.2764929029       -0.7843496685
 H           1.0     5.6973348804       -3.0030013616       -0.8208969691
 H           1.0     3.6258172526       -3.2904475816       -3.5168934467
 B           5.0     4.6902054152        2.7218668264        1.5322654199
 H           1.0     4.1918657750       -0.8026989078        2.7046514227
 H           1.0     3.9342961229        4.3585585044        2.8542799264
 H           1.0     6.6205983062        3.1501165298        0.4832596268

          INTERNUCLEAR DISTANCES (ANGS.)
          ------------------------------

                1 C          2 C          3 C          4 C          5 C     

   1 C       0.0000000    1.5285114 *  2.3624548 *  2.3292121 *  3.7609945  
   2 C       1.5285114 *  0.0000000    1.5171353 *  2.3008697 *  3.6378359  
   3 C       2.3624548 *  1.5171353 *  0.0000000    1.5005956 *  2.6633067 *
   4 C       2.3292121 *  2.3008697 *  1.5005956 *  0.0000000    1.5053184 *
   5 C       3.7609945    3.6378359    2.6633067 *  1.5053184 *  0.0000000  
   6 C       1.5267249 *  2.3756348 *  2.3564644 *  1.3613708 *  2.5272438 *
   7 H       2.3543876 *  3.3046653    3.3594264    2.1146991 *  2.7269575 *
   8 H       1.1115929 *  2.1668999 *  2.7560937 *  2.9229402 *  4.3988108  
   9 H       1.1103004 *  2.1951022 *  3.3444456    3.2191008    4.5165051  
  10 H       2.1563760 *  1.1156743 *  2.1392966 *  2.5989365 *  3.6326493  
  11 H       2.2341385 *  1.1105758 *  2.2322644 *  3.3315628    4.6663806  
  12 H       3.3775493    2.2178133 *  1.1106205 *  2.2127294 *  2.8509013 *
  13 H       2.6723374 *  2.1439330 *  1.1129586 *  2.1477764 *  3.3170043  
  14 H       4.4343566    3.9537643    2.7560578 *  2.1583313 *  1.1098437 *
  15 H       4.2992800    4.4532396    3.4189417    2.1589734 *  1.1100084 *
  16 H       4.0406617    3.9604529    3.3325202    2.1500458 *  1.1101124 *
  17 B       2.8928818 *  3.9933417    3.6523671    2.7877426 *  3.6148956  
  18 H       3.3347455    3.6704162    2.6144438 *  2.0079229 *  2.5814199 *
  19 H       3.0525555    4.2605684    4.1430959    3.6293107    4.6710845  
  20 H       3.7963087    4.9504783    4.5955066    3.4647504    3.9041659  

                6 C          7 H          8 H          9 H         10 H     

   1 C       1.5267249 *  2.3543876 *  1.1115929 *  1.1103004 *  2.1563760 *
   2 C       2.3756348 *  3.3046653    2.1668999 *  2.1951022 *  1.1156743 *
   3 C       2.3564644 *  3.3594264    2.7560937 *  3.3444456    2.1392966 *
   4 C       1.3613708 *  2.1146991 *  2.9229402 *  3.2191008    2.5989365 *
   5 C       2.5272438 *  2.7269575 *  4.3988108    4.5165051    3.6326493  
   6 C       0.0000000    1.1076987 *  2.1763973 *  2.2231540 *  2.7242155 *
   7 H       1.1076987 *  0.0000000    3.0443640    2.6340001 *  3.3840477  
   8 H       2.1763973 *  3.0443640    0.0000000    1.8139687 *  3.0714978  
   9 H       2.2231540 *  2.6340001 *  1.8139687 *  0.0000000    2.4287965 *
  10 H       2.7242155 *  3.3840477    3.0714978    2.4287965 *  0.0000000  
  11 H       3.3866003    4.3362175    2.4941424 *  2.7063396 *  1.8064067 *
  12 H       3.3142588    4.2045360    3.8267746    4.2610003    2.4805128 *
  13 H       2.7957028 *  3.8736199    2.5969392 *  3.7505513    3.0563607  
  14 H       3.4220590    3.7830829    5.0263347    5.2575612    3.9265462  
  15 H       2.8924484 *  2.9183227 *  4.7682388    5.0758127    4.5923931  
  16 H       2.8183208 *  2.6708005 *  4.8672661    4.5620668    3.6564856  
  17 B       2.0792048 *  2.3501062 *  2.6766350 *  3.5769292    4.6561510  
  18 H       2.4375656 *  3.1030945    3.2572500    4.3521294    4.3608801  
  19 H       2.8153602 *  3.2142390    2.4302425 *  3.6406934    5.0745952  
  20 H       2.7359553 *  2.5096505 *  3.7344753    4.2976461    5.4547987  

               11 H         12 H         13 H         14 H         15 H     

   1 C       2.2341385 *  3.3775493    2.6723374 *  4.4343566    4.2992800  
   2 C       1.1105758 *  2.2178133 *  2.1439330 *  3.9537643    4.4532396  
   3 C       2.2322644 *  1.1106205 *  1.1129586 *  2.7560578 *  3.4189417  
   4 C       3.3315628    2.2127294 *  2.1477764 *  2.1583313 *  2.1589734 *
   5 C       4.6663806    2.8509013 *  3.3170043    1.1098437 *  1.1100084 *
   6 C       3.3866003    3.3142588    2.7957028 *  3.4220590    2.8924484 *
   7 H       4.3362175    4.2045360    3.8736199    3.7830829    2.9183227 *
   8 H       2.4941424 *  3.8267746    2.5969392 *  5.0263347    4.7682388  
   9 H       2.7063396 *  4.2610003    3.7505513    5.2575612    5.0758127  
  10 H       1.8064067 *  2.4805128 *  3.0563607    3.9265462    4.5923931  
  11 H       0.0000000    2.7105714 *  2.5132822 *  4.8549188    5.4729577  
  12 H       2.7105714 *  0.0000000    1.8189975 *  2.5149262 *  3.7267685  
  13 H       2.5132822 *  1.8189975 *  0.0000000    3.3858704    3.8057426  
  14 H       4.8549188    2.5149262 *  3.3858704    0.0000000    1.8052571 *
  15 H       5.4729577    3.7267685    3.8057426    1.8052571 *  0.0000000  
  16 H       5.0332418    3.4722721    4.1673962    1.8049250 *  1.8055887 *
  17 B       4.7629003    4.6570582    3.4512266    4.4808521    3.3184856  
  18 H       4.4325596    3.3381674    2.2895629 *  3.0520654    2.3390149 *
  19 H       4.8037306    5.2094004    3.7250490    5.4657243    4.4528872  
  20 H       5.8071592    5.5311957    4.5187665    4.8681690    3.3640901  

               16 H         17 B         18 H         19 H         20 H     

   1 C       4.0406617    2.8928818 *  3.3347455    3.0525555    3.7963087  
   2 C       3.9604529    3.9933417    3.6704162    4.2605684    4.9504783  
   3 C       3.3325202    3.6523671    2.6144438 *  4.1430959    4.5955066  
   4 C       2.1500458 *  2.7877426 *  2.0079229 *  3.6293107    3.4647504  
   5 C       1.1101124 *  3.6148956    2.5814199 *  4.6710845    3.9041659  
   6 C       2.8183208 *  2.0792048 *  2.4375656 *  2.8153602 *  2.7359553 *
   7 H       2.6708005 *  2.3501062 *  3.1030945    3.2142390    2.5096505 *
   8 H       4.8672661    2.6766350 *  3.2572500    2.4302425 *  3.7344753  
   9 H       4.5620668    3.5769292    4.3521294    3.6406934    4.2976461  
  10 H       3.6564856    4.6561510    4.3608801    5.0745952    5.4547987  
  11 H       5.0332418    4.7629003    4.4325596    4.8037306    5.8071592  
  12 H       3.4722721    4.6570582    3.3381674    5.2094004    5.5311957  
  13 H       4.1673962    3.4512266    2.2895629 *  3.7250490    4.5187665  
  14 H       1.8049250 *  4.4808521    3.0520654    5.4657243    4.8681690  
  15 H       1.8055887 *  3.3184856    2.3390149 *  4.4528872    3.3640901  
  16 H       0.0000000    4.1927022    3.5583747    5.2704116    4.3137134  
  17 B       4.1927022    0.0000000    1.9832074 *  1.1830255 *  1.1844859 *
  18 H       3.5583747    1.9832074 *  0.0000000    2.7357649 *  2.7219508 *
  19 H       5.2704116    1.1830255 *  2.7357649 *  0.0000000    2.0009821 *
  20 H       4.3137134    1.1844859 *  2.7219508 *  2.0009821 *  0.0000000  

  * ... LESS THAN  3.000


     ATOMIC BASIS SET
     ----------------
 THE CONTRACTED PRIMITIVE FUNCTIONS HAVE BEEN UNNORMALIZED
 THE CONTRACTED BASIS FUNCTIONS ARE NOW NORMALIZED TO UNITY

  SHELL TYPE  PRIMITIVE        EXPONENT          CONTRACTION COEFFICIENT(S)

 C         

      1   S       1            71.6168373    0.154328967295
      1   S       2            13.0450963    0.535328142282
      1   S       3             3.5305122    0.444634542185

      2   L       4             2.9412494   -0.099967229187    0.155916274999
      2   L       5             0.6834831    0.399512826089    0.607683718598
      2   L       6             0.2222899    0.700115468880    0.391957393099

 C         

      3   S       7            71.6168373    0.154328967295
      3   S       8            13.0450963    0.535328142282
      3   S       9             3.5305122    0.444634542185

      4   L      10             2.9412494   -0.099967229187    0.155916274999
      4   L      11             0.6834831    0.399512826089    0.607683718598
      4   L      12             0.2222899    0.700115468880    0.391957393099

 C         

      5   S      13            71.6168373    0.154328967295
      5   S      14            13.0450963    0.535328142282
      5   S      15             3.5305122    0.444634542185

      6   L      16             2.9412494   -0.099967229187    0.155916274999
      6   L      17             0.6834831    0.399512826089    0.607683718598
      6   L      18             0.2222899    0.700115468880    0.391957393099

 C         

      7   S      19            71.6168373    0.154328967295
      7   S      20            13.0450963    0.535328142282
      7   S      21             3.5305122    0.444634542185

      8   L      22             2.9412494   -0.099967229187    0.155916274999
      8   L      23             0.6834831    0.399512826089    0.607683718598
      8   L      24             0.2222899    0.700115468880    0.391957393099

 C         

      9   S      25            71.6168373    0.154328967295
      9   S      26            13.0450963    0.535328142282
      9   S      27             3.5305122    0.444634542185

     10   L      28             2.9412494   -0.099967229187    0.155916274999
     10   L      29             0.6834831    0.399512826089    0.607683718598
     10   L      30             0.2222899    0.700115468880    0.391957393099

 C         

     11   S      31            71.6168373    0.154328967295
     11   S      32            13.0450963    0.535328142282
     11   S      33             3.5305122    0.444634542185

     12   L      34             2.9412494   -0.099967229187    0.155916274999
     12   L      35             0.6834831    0.399512826089    0.607683718598
     12   L      36             0.2222899    0.700115468880    0.391957393099

 H         

     13   S      37             3.4252509    0.154328967295
     13   S      38             0.6239137    0.535328142282
     13   S      39             0.1688554    0.444634542185

 H         

     14   S      40             3.4252509    0.154328967295
     14   S      41             0.6239137    0.535328142282
     14   S      42             0.1688554    0.444634542185

 H         

     15   S      43             3.4252509    0.154328967295
     15   S      44             0.6239137    0.535328142282
     15   S      45             0.1688554    0.444634542185

 H         

     16   S      46             3.4252509    0.154328967295
     16   S      47             0.6239137    0.535328142282
     16   S      48             0.1688554    0.444634542185

 H         

     17   S      49             3.4252509    0.154328967295
     17   S      50             0.6239137    0.535328142282
     17   S      51             0.1688554    0.444634542185

 H         

     18   S      52             3.4252509    0.154328967295
     18   S      53             0.6239137    0.535328142282
     18   S      54             0.1688554    0.444634542185

 H         

     19   S      55             3.4252509    0.154328967295
     19   S      56             0.6239137    0.535328142282
     19   S      57             0.1688554    0.444634542185

 H         

     20   S      58             3.4252509    0.154328967295
     20   S      59             0.6239137    0.535328142282
     20   S      60             0.1688554    0.444634542185

 H         

     21   S      61             3.4252509    0.154328967295
     21   S      62             0.6239137    0.535328142282
     21   S      63             0.1688554    0.444634542185

 H         

     22   S      64             3.4252509    0.154328967295
     22   S      65             0.6239137    0.535328142282
     22   S      66             0.1688554    0.444634542185

 B         

     23   S      67            48.7911132    0.154328967295
     23   S      68             8.8873622    0.535328142282
     23   S      69             2.4052670    0.444634542185

     24   L      70             2.2369561   -0.099967229187    0.155916274999
     24   L      71             0.5198205    0.399512826089    0.607683718598
     24   L      72             0.1690618    0.700115468880    0.391957393099

 H         

     25   S      73             3.4252509    0.154328967295
     25   S      74             0.6239137    0.535328142282
     25   S      75             0.1688554    0.444634542185

 H         

     26   S      76             3.4252509    0.154328967295
     26   S      77             0.6239137    0.535328142282
     26   S      78             0.1688554    0.444634542185

 H         

     27   S      79             3.4252509    0.154328967295
     27   S      80             0.6239137    0.535328142282
     27   S      81             0.1688554    0.444634542185

 TOTAL NUMBER OF BASIS SET SHELLS             =   27
 NUMBER OF CARTESIAN GAUSSIAN BASIS FUNCTIONS =   48
 NUMBER OF ELECTRONS                          =   54
 CHARGE OF MOLECULE                           =    0
 SPIN MULTIPLICITY                            =    1
 NUMBER OF OCCUPIED ORBITALS (ALPHA)          =   27
 NUMBER OF OCCUPIED ORBITALS (BETA )          =   27
 TOTAL NUMBER OF ATOMS                        =   20
 THE NUCLEAR REPULSION ENERGY IS      301.8957237114

     $CONTRL OPTIONS
     ---------------
 SCFTYP=RHF          RUNTYP=OPTIMIZE     EXETYP=RUN     
 MPLEVL=       0     CITYP =NONE         CCTYP =NONE         VBTYP =NONE    
 DFTTYP=NONE         TDDFT =NONE    
 MULT  =       1     ICHARG=       0     NZVAR =       1     COORD =UNIQUE  
 PP    =NONE         RELWFN=NONE         LOCAL =NONE         NUMGRD=       F
 ISPHER=      -1     NOSYM =       0     MAXIT =      30     UNITS =ANGS    
 PLTORB=       F     MOLPLT=       F     AIMPAC=       F     FRIEND=        
 NPRINT=       7     IREST =       0     GEOM  =INPUT   
 NORMF =       0     NORMP =       0     ITOL  =      20     ICUT  =       9
 INTTYP=BEST         GRDTYP=BEST         QMTTOL= 1.0E-06

     $SYSTEM OPTIONS
     ---------------
  REPLICATED MEMORY=     1000000 WORDS (ON EVERY NODE).
 DISTRIBUTED MEMDDI=           0 MILLION WORDS IN AGGREGATE,
 MEMDDI DISTRIBUTED OVER   1 PROCESSORS IS           0 WORDS/PROCESSOR.
 TOTAL MEMORY REQUESTED ON EACH PROCESSOR=     1000000 WORDS.
 TIMLIM=      525600.00 MINUTES, OR     365.0 DAYS.
 PARALL= F  BALTYP=  DLB     KDIAG=    0  COREFL= F
 MXSEQ2=     300 MXSEQ3=     150  mem10=         0

          ----------------
          PROPERTIES INPUT
          ----------------

     MOMENTS            FIELD           POTENTIAL          DENSITY
 IEMOM =       1   IEFLD =       0   IEPOT =       0   IEDEN =       0
 WHERE =COMASS     WHERE =NUCLEI     WHERE =NUCLEI     WHERE =NUCLEI  
 OUTPUT=BOTH       OUTPUT=BOTH       OUTPUT=BOTH       OUTPUT=BOTH    
 IEMINT=       0   IEFINT=       0                     IEDINT=       0
                                                       MORB  =       0
          EXTRAPOLATION IN EFFECT
          SOSCF IN EFFECT
 ORBITAL PRINTING OPTION: NPREO=     1    48     2     1

     -------------------------------
     INTEGRAL TRANSFORMATION OPTIONS
     -------------------------------
     NWORD  =            0
     CUTOFF = 1.0E-09     MPTRAN =       0
     DIRTRF =       F     AOINTS =DUP     

          ----------------------
          INTEGRAL INPUT OPTIONS
          ----------------------
 NOPK  =       1 NORDER=       0 SCHWRZ=       T


 -----------------------------------------------
  STATISTICS ON AUTOMATIC COORDINATE GENERATION 
 -----------------------------------------------
  NUMBER OF USER SPECIFIED BONDS                             3
  NUMBER OF BONDS                                           21
  NUMBER OF ANGLES                                          43
  NUMBER OF TORSIONS                                        69
  NUMBER OF EXTRA COORD.                                     0
  NUMBER OF EXTRA COORD. FOR CONSTRAINTS                     0
  NUMBER OF CONSTRAINED COORD.                               3

  TOTAL NUMBER OF PRIMITIVES                               133
 -----------------------------------------------

   --- ENCODED Z MATRIX ---
 COORD  TYPE   I   J   K   L   M   N
    1      1    4  18
    2      1    6  17
    3      1   17  18
    4      1    1   9
    5      1    1   8
    6      1    1   2
    7      1    1   6
    8      1    2  10
    9      1    2   3
   10      1    2  11
   11      1    3   4
   12      1    3  12
   13      1    3  13
   14      1    4   6
   15      1    4   5
   16      1    5  15
   17      1    5  14
   18      1    5  16
   19      1    6   7
   20      1   17  20
   21      1   17  19
   22      2    1   6  17
   23      2    1   2  10
   24      2    1   6   4
   25      2    1   2  11
   26      2    1   6   7
   27      2    1   2   3
   28      2    2   3  13
   29      2    2   1   6
   30      2    2   1   9
   31      2    2   3  12
   32      2    2   1   8
   33      2    2   3   4
   34      2    3   2  10
   35      2    3   2  11
   36      2    3   4  18
   37      2    3   4   6
   38      2    3   4   5
   39      2    4  18  17
   40      2    4   3  12
   41      2    4   6  17
   42      2    4   6   7
   43      2    4   3  13
   44      2    4   5  16
   45      2    4   5  14
   46      2    4   5  15
   47      2    5   4  18
   48      2    5   4   6
   49      2    6   4  18
   50      2    6   1   9
   51      2    6  17  19
   52      2    6   1   8
   53      2    6  17  20
   54      2    6  17  18
   55      2    7   6  17
   56      2    8   1   9
   57      2   10   2  11
   58      2   12   3  13
   59      2   14   5  16
   60      2   14   5  15
   61      2   15   5  16
   62      2   18  17  19
   63      2   18  17  20
   64      2   19  17  20
   65      3    1   6   4   5
   66      3    1   6   4  18
   67      3    1   2   3  13
   68      3    1   2   3  12
   69      3    1   6   4   3
   70      3    1   6  17  19
   71      3    1   6  17  20
   72      3    1   2   3   4
   73      3    1   6  17  18
   74      3    2   1   6  17
   75      3    2   3   4  18
   76      3    2   3   4   6
   77      3    2   1   6   4
   78      3    2   1   6   7
   79      3    2   3   4   5
   80      3    3   4  18  17
   81      3    3   2   1   6
   82      3    3   2   1   8
   83      3    3   2   1   9
   84      3    3   4   5  16
   85      3    3   4   5  14
   86      3    3   4   5  15
   87      3    3   4   6  17
   88      3    3   4   6   7
   89      3    4   3   2  11
   90      3    4   3   2  10
   91      3    4   6   1   8
   92      3    4   6  17  19
   93      3    4   6  17  20
   94      3    4   6  17  18
   95      3    4   6   1   9
   96      3    4  18  17  19
   97      3    4  18  17  20
   98      3    4  18  17   6
   99      3    5   4   6   7
  100      3    5   4   6  17
  101      3    5   4  18  17
  102      3    5   4   3  13
  103      3    5   4   3  12
  104      3    6   4   5  15
  105      3    6   4   5  14
  106      3    6   4   5  16
  107      3    6   1   2  10
  108      3    6   4  18  17
  109      3    6   1   2  11
  110      3    6   4   3  13
  111      3    6   4   3  12
  112      3    7   6  17  19
  113      3    7   6   4  18
  114      3    7   6   1   8
  115      3    7   6   1   9
  116      3    7   6  17  18
  117      3    7   6  17  20
  118      3    8   1   6  17
  119      3    8   1   2  11
  120      3    8   1   2  10
  121      3    9   1   2  10
  122      3    9   1   6  17
  123      3    9   1   2  11
  124      3   10   2   3  13
  125      3   10   2   3  12
  126      3   11   2   3  13
  127      3   11   2   3  12
  128      3   12   3   4  18
  129      3   13   3   4  18
  130      3   14   5   4  18
  131      3   15   5   4  18
  132      3   16   5   4  18
  133      3   17   6   4  18

          INDEP./SYM. INTERNAL COORDINATES
          --------------------------------
 CRD  1=   1.0000 (  1)
 CRD  2=   1.0000 (  2)
 CRD  3=   1.0000 (  3)
 CRD  4=   0.1626 (  7)  0.1976 ( 11)  0.1763 ( 14)  0.3645 ( 15)  0.1526 ( 22)
          -0.1122 ( 34) -0.1682 ( 44)  0.1249 ( 45)  0.3439 ( 46)  0.1010 ( 51)
           0.1217 ( 52)  0.1005 ( 53) -0.1602 ( 60) -0.1046 ( 64) -0.2315 ( 65)
          -0.1408 ( 66) -0.1823 ( 69)  0.1024 ( 74)  0.1002 ( 75)  0.1454 ( 76)
           0.1382 ( 77)  0.2023 ( 79) -0.1017 ( 82)  0.1208 ( 95)  0.1363 ( 96)
          -0.1062 ( 97)  0.1105 (102)
 CRD  5=  -0.2991 ( 11) -0.1194 ( 12) -0.1767 ( 15)  0.1445 ( 23)  0.1708 ( 33)
          -0.1808 ( 36) -0.1093 ( 39) -0.1497 ( 41) -0.1887 ( 43) -0.1614 ( 45)
           0.1567 ( 49)  0.1031 ( 54)  0.1406 ( 55) -0.1097 ( 62) -0.1314 ( 67)
          -0.1014 ( 69)  0.2525 ( 74)  0.1761 ( 75)  0.1013 ( 77) -0.1320 ( 81)
           0.1043 ( 86) -0.1434 ( 87) -0.1547 ( 97) -0.1218 (109)  0.1423 (118)
           0.1599 (122)  0.1711 (128) -0.1531 (130) -0.1302 (131) -0.1563 (132)
 CRD  6=  -0.1058 (  4) -0.1403 (  9)  0.1120 ( 10)  0.2339 ( 11) -0.1457 ( 14)
          -0.1287 ( 15)  0.1080 ( 23) -0.1995 ( 24)  0.1525 ( 25)  0.1365 ( 26)
          -0.2853 ( 27)  0.3357 ( 29) -0.1420 ( 30) -0.1636 ( 31)  0.1691 ( 33)
           0.1489 ( 41) -0.1344 ( 43) -0.1069 ( 49) -0.1892 ( 52)  0.1490 ( 53)
          -0.1008 ( 54)  0.1388 ( 56) -0.1142 ( 57) -0.1569 ( 64) -0.1005 ( 70)
          -0.1105 ( 71)  0.1216 ( 72) -0.1383 ( 73)  0.1436 ( 90) -0.1328 ( 97)
 CRD  7=   0.1936 (  6) -0.1670 (  7)  0.1278 ( 11)  0.1247 ( 12)  0.2066 ( 14)
          -0.1267 ( 16)  0.1028 ( 21)  0.1252 ( 27) -0.1634 ( 33)  0.1125 ( 40)
           0.3778 ( 44)  0.1105 ( 45) -0.4646 ( 46)  0.1150 ( 51)  0.1548 ( 53)
          -0.1959 ( 59)  0.1366 ( 60) -0.1573 ( 64) -0.1068 ( 87) -0.1928 ( 97)
          -0.1137 (105)
 CRD  8=   0.1292 (  4)  0.3507 (  6)  0.3768 (  7) -0.2208 ( 11)  0.1159 ( 25)
           0.1425 ( 26) -0.1601 ( 29)  0.1176 ( 32)  0.1070 ( 33)  0.1028 ( 37)
          -0.1137 ( 40) -0.1396 ( 42) -0.1448 ( 44)  0.2757 ( 45)  0.1926 ( 50)
           0.1418 ( 53)  0.1152 ( 66) -0.1231 ( 70) -0.1314 ( 71) -0.1468 ( 80)
          -0.1111 ( 81) -0.1193 ( 92) -0.1276 ( 93) -0.1144 ( 97) -0.1149 (101)
          -0.1065 (107) -0.1427 (109)
 CRD  9=  -0.3030 (  6) -0.1017 (  7) -0.2418 ( 11)  0.1772 ( 17) -0.2992 ( 44)
           0.5411 ( 45) -0.2849 ( 46) -0.1028 ( 59) -0.1049 ( 60)  0.2518 ( 61)
           0.1070 (101)
 CRD 10=  -0.1758 (  6) -0.6353 (  9) -0.1666 ( 10) -0.1557 ( 12) -0.1261 ( 14)
           0.1293 ( 27) -0.1403 ( 31) -0.1285 ( 34) -0.1473 ( 35)  0.1982 ( 44)
          -0.1437 ( 46)  0.1083 ( 52)  0.1099 ( 57) -0.1098 ( 59)  0.1086 (102)
           0.1110 (107) -0.1024 (119)  0.1227 (121) -0.1103 (128)
 CRD 11=   0.4676 (  6) -0.2354 (  7) -0.2227 (  9)  0.1396 ( 14)  0.1305 ( 23)
           0.1730 ( 25) -0.1028 ( 26)  0.1958 ( 30) -0.1131 ( 35) -0.1736 ( 44)
           0.1561 ( 45) -0.1437 ( 50) -0.1638 ( 53) -0.1010 ( 60) -0.1061 ( 89)
          -0.1681 ( 95)  0.1578 ( 97)  0.1263 (114)  0.1456 (120) -0.1055 (122)
          -0.1477 (123)  0.1146 (124) -0.1112 (127)  0.1015 (129)
 CRD 12=  -0.1170 (  5) -0.1280 (  6) -0.1787 (  9) -0.1223 ( 10)  0.1697 ( 11)
           0.1614 ( 14) -0.1019 ( 18)  0.1293 ( 19) -0.1590 ( 23)  0.1782 ( 27)
          -0.1406 ( 28) -0.2276 ( 35) -0.2482 ( 44)  0.1460 ( 46)  0.1686 ( 50)
          -0.1360 ( 52)  0.1616 ( 53)  0.1215 ( 55)  0.1343 ( 59)  0.1030 ( 67)
           0.1262 ( 74) -0.1355 ( 76) -0.1228 ( 79)  0.1320 ( 82)  0.1415 ( 83)
           0.1152 ( 88)  0.1129 ( 92) -0.2350 ( 97)  0.1043 ( 99) -0.1269 (107)
          -0.1460 (109) -0.1028 (111)  0.1349 (118)  0.1632 (122)
 CRD 13=   0.2283 (  7)  0.1981 ( 11)  0.1456 ( 12)  0.1708 ( 14) -0.1711 ( 15)
           0.2264 ( 19) -0.1645 ( 21)  0.1191 ( 23) -0.1625 ( 25) -0.1640 ( 32)
          -0.1430 ( 34)  0.1533 ( 40) -0.1197 ( 43) -0.1424 ( 44) -0.2934 ( 51)
           0.1416 ( 52)  0.1194 ( 61)  0.1324 ( 64) -0.1139 ( 68)  0.1289 ( 78)
          -0.1175 ( 82)  0.1265 ( 89)  0.1459 ( 90) -0.3196 ( 96) -0.1019 (102)
 CRD 14=  -0.1059 (  8)  0.1307 ( 12) -0.2031 ( 13) -0.1091 ( 20)  0.2050 ( 21)
          -0.1283 ( 25) -0.1317 ( 34)  0.1463 ( 40) -0.2105 ( 43)  0.2710 ( 51)
          -0.2527 ( 53)  0.1319 ( 72) -0.1092 ( 75)  0.1109 ( 77) -0.1505 ( 81)
           0.1905 ( 89)  0.1791 ( 90)  0.2904 ( 96)  0.2935 ( 97) -0.1145 (129)
           0.1040 (130)  0.1180 (131)  0.1157 (132)
 CRD 15=   0.2080 (  5) -0.2625 ( 13) -0.3784 ( 19)  0.1392 ( 20)  0.1590 ( 23)
           0.1277 ( 24) -0.1361 ( 25) -0.1615 ( 34)  0.1458 ( 35)  0.2637 ( 53)
          -0.1535 ( 64)  0.1299 ( 73) -0.1121 ( 74) -0.1006 ( 83) -0.1006 ( 84)
          -0.1196 ( 85) -0.1032 ( 86)  0.1091 ( 88) -0.2809 ( 97)  0.1125 ( 99)
          -0.1069 (105)  0.1169 (107)
 CRD 16=   0.1941 (  5)  0.3433 (  8) -0.2637 ( 10)  0.2301 ( 19) -0.1659 ( 20)
           0.1224 ( 21)  0.1575 ( 23) -0.1332 ( 25)  0.1076 ( 26)  0.1353 ( 40)
           0.1358 ( 51) -0.1056 ( 53) -0.1890 ( 67) -0.2256 ( 68) -0.1079 ( 71)
          -0.1103 ( 72)  0.1212 ( 81)  0.1125 ( 82)  0.1898 ( 83) -0.1005 ( 84)
          -0.1037 ( 85) -0.1046 ( 86) -0.1250 ( 91)  0.1323 ( 96) -0.1573 (104)
          -0.1564 (105) -0.1532 (106) -0.1303 (130) -0.1311 (131) -0.1270 (132)
 CRD 17=   0.1444 (  7) -0.3589 (  8)  0.2372 ( 10) -0.1729 ( 13)  0.2960 ( 19)
          -0.1722 ( 20)  0.1258 ( 21) -0.1436 ( 28)  0.1124 ( 30) -0.1419 ( 32)
          -0.1332 ( 34) -0.1387 ( 40) -0.1600 ( 50)  0.1414 ( 51)  0.1736 ( 52)
           0.1361 ( 67)  0.1422 ( 68) -0.1926 ( 82) -0.1743 ( 83) -0.1110 ( 84)
          -0.1111 ( 85) -0.1083 ( 86)  0.1058 ( 96) -0.1208 (104) -0.1237 (105)
          -0.1236 (106)  0.1150 (107) -0.1080 (130) -0.1051 (131) -0.1079 (132)
 CRD 18=  -0.1327 (  5) -0.2567 (  7) -0.1313 (  8) -0.1477 ( 11)  0.1463 ( 12)
          -0.1408 ( 13) -0.1448 ( 17) -0.1827 ( 18) -0.1624 ( 21)  0.1269 ( 30)
           0.1493 ( 31) -0.1624 ( 32)  0.2027 ( 46) -0.1187 ( 50)  0.1082 ( 53)
          -0.1610 ( 60) -0.1318 ( 61) -0.1217 ( 70) -0.1902 ( 71) -0.1818 ( 73)
          -0.1090 ( 79) -0.1840 ( 80) -0.1359 ( 91) -0.1190 ( 93) -0.1106 ( 94)
          -0.1170 ( 95) -0.1379 (101) -0.1064 (108)  0.1074 (111) -0.1175 (112)
          -0.1776 (116) -0.1860 (117) -0.1004 (118)  0.1049 (133)
 CRD 19=   0.1996 (  4) -0.2803 (  5) -0.1091 ( 12) -0.1978 ( 19)  0.1201 ( 25)
           0.1340 ( 28) -0.2022 ( 31)  0.1028 ( 40) -0.1215 ( 51) -0.1051 ( 55)
           0.1322 ( 64)  0.1004 ( 78) -0.2313 ( 84) -0.2151 ( 85) -0.2255 ( 86)
          -0.1496 ( 96) -0.1273 ( 99) -0.1274 (103) -0.1580 (104) -0.1477 (105)
          -0.1639 (106) -0.1065 (107) -0.1270 (109) -0.1453 (110) -0.1864 (111)
          -0.1317 (113) -0.1561 (128) -0.1151 (129) -0.1512 (130) -0.1616 (131)
          -0.1674 (132)
 CRD 20=   0.1604 (  4) -0.1735 (  5)  0.1353 ( 15)  0.4257 ( 16)  0.4105 ( 17)
           0.4286 ( 18) -0.2081 ( 19)  0.1132 ( 30) -0.1062 ( 32) -0.1638 ( 44)
          -0.1862 ( 45) -0.1414 ( 46)  0.1810 ( 59)  0.1712 ( 60)  0.1508 ( 61)
          -0.1156 (118) -0.1163 (122)
 CRD 21=  -0.3790 (  4)  0.1298 (  5) -0.1206 (  7)  0.1473 ( 10)  0.1698 ( 15)
           0.2146 ( 16)  0.2115 ( 17)  0.2186 ( 18)  0.1897 ( 19) -0.1332 ( 21)
           0.1109 ( 28) -0.1728 ( 30)  0.1467 ( 32)  0.1153 ( 64) -0.1431 ( 71)
          -0.1064 ( 73) -0.1071 ( 80)  0.1456 ( 91)  0.1398 ( 95) -0.1247 (110)
          -0.1094 (111)  0.1346 (114)  0.1289 (115) -0.1027 (116) -0.1394 (117)
           0.1944 (118)  0.1886 (122)
 CRD 22=  -0.2443 ( 12)  0.3766 ( 13)  0.2154 ( 16) -0.1783 ( 18) -0.1598 ( 20)
           0.2056 ( 28) -0.1169 ( 31)  0.1227 ( 51)  0.1040 ( 52)  0.1263 ( 53)
          -0.2315 ( 64)  0.1100 ( 84)  0.1073 ( 86)  0.1122 ( 96) -0.1468 ( 97)
          -0.2637 (102) -0.2088 (103) -0.1781 (110) -0.1233 (111) -0.1052 (124)
          -0.1010 (126) -0.1339 (128) -0.1887 (129)
 CRD 23=   0.1079 (  4) -0.5801 ( 20) -0.6776 ( 21)  0.1020 ( 63) -0.1930 ( 64)
           0.1093 ( 71)  0.1082 (117)
 CRD 24=  -0.3160 (  4) -0.3120 (  5)  0.1096 (  8)  0.1477 ( 12) -0.1708 ( 16)
           0.1316 ( 17) -0.3519 ( 20)  0.1958 ( 21)  0.1911 ( 62) -0.2292 ( 63)
          -0.1384 ( 70) -0.1470 ( 71) -0.1790 ( 92) -0.1876 ( 93) -0.1042 ( 96)
          -0.1355 ( 97)  0.1056 (105)  0.1350 (106) -0.1875 (112) -0.1009 (115)
          -0.1960 (117)  0.1160 (132)
 CRD 25=   0.1716 ( 12)  0.1369 ( 13)  0.3332 ( 16) -0.5908 ( 17)  0.2491 ( 18)
           0.1019 ( 45) -0.1873 ( 59) -0.1454 ( 60)  0.3345 ( 61) -0.1764 ( 84)
           0.1725 ( 86)  0.1762 (104) -0.1727 (106)  0.1731 (131) -0.1758 (132)
 CRD 26=  -0.4865 ( 16)  0.5523 ( 18)  0.2873 ( 59) -0.3128 ( 60)  0.1078 ( 84)
          -0.2020 ( 85)  0.1343 ( 86)  0.1173 (104) -0.2190 (105) -0.2188 (130)
           0.1175 (131)
 CRD 27=  -0.3297 (  8) -0.2130 ( 10)  0.4852 ( 12)  0.5520 ( 13)  0.1689 ( 17)
          -0.1060 ( 18)  0.1867 ( 58)  0.1351 (125) -0.1136 (126)
 CRD 28=   0.1658 (  4)  0.3063 (  5) -0.3759 (  8) -0.4966 ( 10) -0.1228 ( 12)
          -0.2637 ( 13)  0.1000 ( 19)  0.1054 ( 25)  0.1388 ( 34)  0.1011 ( 56)
          -0.1924 ( 57)  0.1173 (105) -0.1231 (107) -0.1246 (120) -0.2127 (121)
          -0.1298 (127)
 CRD 29=  -0.3945 (  4) -0.2304 (  5) -0.1280 ( 10)  0.2480 ( 12) -0.1094 ( 13)
           0.1121 ( 19)  0.2131 ( 20) -0.1871 ( 21)  0.1114 ( 52) -0.1515 ( 56)
          -0.1470 ( 62)  0.1585 ( 63)  0.1415 ( 70)  0.1555 ( 71) -0.1260 ( 82)
           0.1266 ( 92)  0.1406 ( 93)  0.1015 (105)  0.1289 (112) -0.1187 (115)
           0.1429 (117) -0.1649 (119) -0.2062 (120) -0.1065 (124) -0.1404 (126)
 CRD 30=   0.2466 (  4)  0.3993 (  5)  0.2672 (  8)  0.3449 ( 10)  0.3678 ( 12)
          -0.1345 ( 23) -0.1006 ( 50)  0.1474 ( 56)  0.1203 ( 57)  0.1110 ( 58)
          -0.1224 ( 83) -0.1073 ( 90)  0.1008 (102)  0.1086 (105) -0.1274 (114)
          -0.1109 (121) -0.2029 (123) -0.2100 (124) -0.1369 (125)
 CRD 31=  -0.2406 (  4)  0.2095 (  5) -0.1131 (  8) -0.1815 ( 13) -0.1043 ( 18)
          -0.2635 ( 19) -0.1115 ( 35) -0.1021 ( 55) -0.1047 ( 58) -0.1281 ( 68)
          -0.1186 ( 69)  0.1046 ( 76)  0.1084 ( 78)  0.1091 ( 84)  0.1221 ( 86)
          -0.1952 ( 88) -0.1053 ( 89) -0.1051 ( 90)  0.1225 ( 91)  0.1172 ( 95)
          -0.1084 (105)  0.1046 (110)  0.2034 (111)  0.1248 (112) -0.1315 (113)
           0.1486 (114)  0.1433 (115) -0.1170 (119) -0.1166 (120) -0.1459 (124)
          -0.1962 (125) -0.1460 (126) -0.1964 (127)  0.1275 (128)
 CRD 32=  -0.1143 ( 11)  0.1819 ( 14) -0.1363 ( 17)  0.1208 ( 19)  0.1023 ( 20)
           0.1572 ( 21)  0.1524 ( 38)  0.2247 ( 62)  0.1899 ( 63) -0.2919 ( 64)
          -0.2655 ( 70)  0.2261 ( 71)  0.1160 ( 78) -0.2857 ( 92)  0.2059 ( 93)
          -0.1102 (101) -0.3538 (112)  0.1387 (114)  0.1310 (115)  0.1378 (117)
 CRD 33=  -0.1637 (  4)  0.1736 (  5)  0.3588 (  8) -0.2745 ( 10) -0.1017 ( 12)
           0.1390 ( 13) -0.1010 ( 50)  0.1647 ( 67)  0.1811 ( 68) -0.1007 ( 81)
          -0.1617 ( 82) -0.1831 ( 83)  0.1402 ( 89)  0.1272 ( 90) -0.1347 (107)
          -0.1544 (109) -0.2154 (119) -0.1956 (120) -0.2171 (121) -0.2369 (123)
           0.1922 (124)  0.2086 (125)  0.2052 (126)  0.2215 (127)
 CRD 34=  -0.1089 (  4)  0.1476 (  5) -0.1538 (  8)  0.1621 ( 10)  0.1056 ( 11)
          -0.1653 ( 12)  0.1511 ( 13)  0.2190 ( 14) -0.2308 ( 16) -0.2060 ( 17)
          -0.1490 ( 18) -0.2862 ( 19) -0.1066 ( 37) -0.1654 ( 44) -0.1744 ( 45)
          -0.1722 ( 46)  0.1483 ( 47)  0.1423 ( 59)  0.2156 ( 60)  0.1659 ( 61)
           0.1313 ( 66) -0.1246 ( 75) -0.1029 ( 93) -0.1045 ( 94)  0.1649 ( 96)
           0.1078 ( 97) -0.1004 (108)  0.1272 (113) -0.1619 (116) -0.1603 (117)
          -0.1408 (128)
 CRD 35=  -0.1267 (  4)  0.2151 ( 11)  0.1434 ( 12) -0.1944 ( 14)  0.1903 ( 17)
          -0.3338 ( 19)  0.1183 ( 21) -0.1166 ( 32) -0.1201 ( 38) -0.1302 ( 39)
          -0.1171 ( 41)  0.1436 ( 45)  0.1634 ( 49)  0.1031 ( 55) -0.1474 ( 58)
          -0.1024 ( 60)  0.1263 ( 63) -0.1107 ( 64)  0.1136 ( 67) -0.1597 ( 70)
           0.1145 ( 75) -0.1038 ( 80)  0.1063 ( 90) -0.1406 ( 91) -0.1078 ( 92)
           0.1357 ( 93) -0.1701 (114)  0.1611 (117)  0.1182 (122)  0.1751 (124)
           0.1328 (128) -0.1608 (130) -0.1107 (131) -0.1799 (132)
 CRD 36=  -0.2038 (  4)  0.2302 (  5) -0.2062 (  8)  0.1213 ( 10) -0.1407 ( 12)
           0.1354 ( 13)  0.1389 ( 14) -0.1785 ( 15)  0.1468 ( 18)  0.1267 ( 20)
           0.1312 ( 36) -0.1064 ( 41)  0.1417 ( 44)  0.1246 ( 51) -0.1337 ( 55)
          -0.1121 ( 59) -0.1362 ( 61)  0.1105 ( 69) -0.1176 ( 76)  0.1261 ( 78)
           0.1215 ( 87)  0.1195 ( 89) -0.1368 ( 91) -0.1692 ( 95)  0.1499 ( 96)
          -0.1464 ( 97) -0.2326 ( 99)  0.1077 (103)  0.1127 (105)  0.1124 (106)
          -0.1022 (109) -0.2548 (113)
 CRD 37=  -0.1124 (  8)  0.1542 ( 10) -0.1379 ( 12)  0.1041 ( 13)  0.1231 ( 14)
          -0.3108 ( 15)  0.2068 ( 16)  0.1673 ( 18) -0.1182 ( 19) -0.2119 ( 20)
          -0.1023 ( 26)  0.1487 ( 44)  0.1527 ( 45)  0.1865 ( 46) -0.1078 ( 49)
          -0.1258 ( 51)  0.1220 ( 55) -0.1167 ( 59) -0.1606 ( 60) -0.2222 ( 61)
           0.1037 ( 64)  0.1255 ( 88) -0.1753 ( 96)  0.1704 ( 99) -0.1213 (107)
           0.1292 (110)  0.1866 (113) -0.1732 (120)
 CRD 38=   0.1628 (  4)  0.1479 (  8) -0.1131 ( 13) -0.3177 ( 15)  0.1126 ( 17)
           0.1285 ( 18) -0.1505 ( 31)  0.1062 ( 35)  0.1687 ( 43)  0.1298 ( 51)
           0.1657 ( 52) -0.1325 ( 55) -0.1481 ( 57) -0.1385 ( 59)  0.1134 ( 67)
           0.1340 ( 78) -0.1165 ( 82)  0.1391 ( 85) -0.1061 ( 88) -0.1258 ( 89)
           0.1924 ( 96) -0.2213 (103)  0.1820 (109) -0.1599 (111)  0.1869 (114)
           0.2165 (115) -0.1155 (117) -0.1714 (120)  0.1232 (123)  0.1104 (124)
          -0.1293 (128)
 CRD 39=   0.2448 (  7) -0.1049 (  9) -0.1884 ( 10)  0.2239 ( 11) -0.1699 ( 14)
          -0.2921 ( 20)  0.3208 ( 21) -0.1369 ( 23)  0.1262 ( 30)  0.1136 ( 32)
           0.1380 ( 42) -0.1140 ( 43)  0.1023 ( 53)  0.1412 ( 57) -0.1520 ( 62)
           0.1533 ( 63) -0.1089 ( 73) -0.1328 ( 90)  0.1077 ( 91) -0.1338 ( 95)
           0.2069 (114) -0.1966 (116)  0.1053 (118) -0.1361 (122) -0.2217 (124)
           0.1271 (127)
 CRD 40=  -0.1231 ( 11)  0.1145 ( 12) -0.1236 ( 13)  0.2091 ( 14) -0.1799 ( 17)
          -0.1465 ( 19) -0.2750 ( 20)  0.2512 ( 21)  0.1689 ( 25) -0.1355 ( 30)
          -0.1343 ( 32) -0.1029 ( 35) -0.1411 ( 40) -0.1001 ( 48)  0.1001 ( 59)
          -0.1677 ( 62)  0.1099 ( 63)  0.1203 ( 68)  0.1076 ( 70) -0.1748 ( 89)
          -0.1692 ( 91)  0.1826 ( 92)  0.1255 ( 93)  0.1107 (107) -0.1168 (110)
           0.1349 (112) -0.1051 (114)  0.1293 (115) -0.1164 (118)  0.1143 (121)
           0.1180 (122)  0.1782 (125) -0.1305 (126) -0.1101 (129)  0.1364 (132)
 CRD 41=  -0.1165 (  4) -0.3397 (  6)  0.1894 (  7)  0.2560 (  9)  0.1450 ( 12)
          -0.2016 ( 15)  0.1582 ( 23)  0.1378 ( 25) -0.1271 ( 26) -0.1819 ( 34)
          -0.1616 ( 35)  0.1179 ( 43) -0.1687 ( 52) -0.1247 ( 58)  0.1026 ( 82)
          -0.1258 ( 89) -0.1829 (109) -0.1119 (117)  0.2508 (120) -0.1259 (122)
          -0.2043 (123)  0.1932 (124) -0.1470 (127) -0.1263 (129)
 CRD 42=  -0.1320 (  6) -0.1701 (  7) -0.1172 (  8)  0.2418 ( 10) -0.1953 ( 11)
          -0.2874 ( 14)  0.3031 ( 15) -0.1331 ( 18)  0.2203 ( 19) -0.1132 ( 20)
           0.1508 ( 21)  0.1125 ( 23) -0.1003 ( 26)  0.1052 ( 40)  0.1137 ( 50)
           0.1090 ( 53) -0.1534 ( 56) -0.1170 ( 58)  0.1293 ( 70)  0.1004 ( 71)
           0.1061 ( 83)  0.1578 ( 90) -0.1370 (107)  0.1154 (114) -0.1340 (119)
          -0.1886 (120) -0.1255 (122)  0.1916 (124)
 CRD 43=   0.1058 (  4) -0.1123 (  9)  0.2123 ( 11) -0.1351 ( 14)  0.1991 ( 20)
          -0.1841 ( 21) -0.1123 ( 22)  0.1269 ( 25) -0.1661 ( 26)  0.1204 ( 28)
          -0.1283 ( 30)  0.1462 ( 31) -0.1693 ( 40)  0.1570 ( 42) -0.1077 ( 43)
           0.1401 ( 50)  0.1421 ( 51)  0.1451 ( 52) -0.1079 ( 56) -0.1074 ( 63)
           0.1385 ( 68)  0.1142 ( 80) -0.1300 ( 82)  0.1381 ( 83) -0.1119 ( 85)
           0.1462 (103) -0.1199 (110) -0.1800 (112)  0.1489 (115) -0.1139 (116)
          -0.2274 (117) -0.1792 (119)  0.1923 (121)  0.1265 (125) -0.1376 (126)
          -0.1297 (129)
 CRD 44=   0.1119 (  5) -0.1032 (  8) -0.3417 ( 16)  0.2757 ( 18) -0.1772 ( 44)
           0.1659 ( 46) -0.2078 ( 59)  0.2333 ( 60)  0.1155 ( 83)  0.3200 ( 85)
           0.1290 ( 99) -0.1508 (102) -0.1834 (104)  0.1788 (105) -0.2244 (106)
           0.1371 (127)  0.2514 (130) -0.1108 (131) -0.1518 (132)
 CRD 45=  -0.1024 (  5)  0.1567 (  6) -0.1289 (  7)  0.1575 (  9) -0.1988 ( 12)
           0.2452 ( 17) -0.1263 ( 18)  0.1574 ( 19)  0.1061 ( 21)  0.1479 ( 24)
          -0.1029 ( 28) -0.1236 ( 30) -0.1303 ( 45)  0.1034 ( 46)  0.1459 ( 56)
           0.1260 ( 58) -0.1211 ( 60)  0.1446 ( 61) -0.1114 ( 67)  0.1116 ( 70)
           0.1235 ( 71) -0.1015 ( 75) -0.1660 ( 84)  0.1274 ( 86) -0.1173 ( 91)
           0.1559 ( 95)  0.1432 (102)  0.1752 (104) -0.1182 (106)  0.1139 (110)
           0.2180 (115) -0.1911 (118) -0.1093 (124) -0.1343 (126)  0.1508 (131)
          -0.1426 (132)
 CRD 46=  -0.1183 (  4)  0.1720 (  6) -0.1465 ( 14)  0.1373 ( 16) -0.2598 ( 17)
           0.1239 ( 18) -0.1235 ( 22) -0.3096 ( 38)  0.1048 ( 45)  0.1008 ( 47)
           0.2805 ( 48)  0.1069 ( 56)  0.1196 ( 59) -0.2240 ( 61)  0.1141 ( 78)
           0.1808 ( 84) -0.1490 ( 86) -0.1015 ( 91) -0.1053 ( 99) -0.1442 (100)
           0.2959 (101) -0.1218 (104)  0.2079 (106)  0.1526 (115) -0.1307 (118)
          -0.2111 (131)  0.1186 (132)
 CRD 47=   0.1620 (  4) -0.1929 (  5)  0.1052 ( 11)  0.2318 ( 13) -0.1437 ( 15)
          -0.1070 ( 17)  0.1414 ( 18)  0.1039 ( 19)  0.1047 ( 23) -0.1255 ( 30)
           0.1335 ( 31) -0.1048 ( 37) -0.1367 ( 42)  0.1014 ( 45)  0.1140 ( 48)
          -0.1499 ( 58) -0.1677 ( 68)  0.1076 ( 69) -0.1225 ( 78) -0.1127 ( 83)
          -0.1777 ( 86)  0.1891 ( 87) -0.1126 ( 93) -0.1221 ( 94)  0.1169 ( 95)
           0.1615 (100)  0.1734 (103) -0.1398 (104) -0.1183 (108)  0.1613 (111)
          -0.1464 (119)  0.1020 (122) -0.1638 (123) -0.1286 (127)  0.1933 (128)
          -0.1353 (131)  0.1162 (133)
 CRD 48=  -0.1294 (  7) -0.3481 (  9)  0.1194 ( 10)  0.1297 ( 12)  0.1482 ( 14)
           0.1010 ( 27)  0.1006 ( 28)  0.1178 ( 30)  0.1043 ( 31)  0.1045 ( 34)
          -0.1895 ( 37) -0.1402 ( 40)  0.1272 ( 46)  0.1449 ( 47)  0.1270 ( 48)
          -0.1776 ( 57)  0.1050 ( 66) -0.1173 ( 75)  0.1023 ( 78)  0.1559 ( 80)
           0.1056 ( 82) -0.1263 ( 99) -0.1046 (100) -0.1120 (102)  0.1331 (103)
          -0.1688 (107)  0.1140 (109) -0.1547 (110)  0.2352 (119) -0.1648 (121)
           0.1180 (123) -0.2555 (129)
 CRD 49=   0.2679 (  6) -0.1811 ( 10) -0.2566 ( 11)  0.2132 ( 12) -0.1203 ( 23)
          -0.1769 ( 27) -0.1040 ( 31)  0.2007 ( 33)  0.1335 ( 35)  0.1183 ( 38)
           0.1124 ( 43)  0.1826 ( 57) -0.2212 ( 58)  0.2244 ( 67) -0.2172 ( 90)
          -0.1226 (110)  0.1197 (121) -0.3147 (125)  0.3250 (126) -0.1481 (129)
 CRD 50=   0.1757 (  5) -0.3969 (  7)  0.1520 (  9) -0.1209 ( 10)  0.1214 ( 11)
           0.1329 ( 25)  0.1125 ( 26)  0.1737 ( 29) -0.1223 ( 37) -0.1903 ( 42)
           0.1222 ( 48) -0.2136 ( 56)  0.1074 ( 68) -0.1541 ( 82)  0.1439 ( 83)
          -0.1100 ( 88)  0.1048 ( 91) -0.1149 ( 92) -0.1046 ( 94) -0.1047 ( 99)
          -0.1014 (108) -0.1795 (115)  0.1056 (116)  0.1320 (117) -0.1543 (119)
           0.2793 (121) -0.1122 (122)  0.1436 (123)
 CRD 51=  -0.1016 (  4)  0.1621 (  6) -0.1400 (  8)  0.1924 ( 11) -0.1598 ( 13)
          -0.2021 ( 15)  0.1381 ( 19)  0.1588 ( 22)  0.1024 ( 24) -0.1061 ( 25)
           0.1627 ( 28)  0.1416 ( 34) -0.1309 ( 40) -0.1142 ( 46) -0.1128 ( 66)
          -0.1308 ( 69)  0.1208 ( 70) -0.1454 ( 72)  0.1687 ( 75)  0.1784 ( 76)
           0.1116 ( 79)  0.1553 ( 82) -0.1436 ( 93) -0.1184 ( 94)  0.1041 ( 95)
           0.1023 ( 96)  0.1688 (100) -0.1129 (108) -0.1478 (114) -0.1292 (118)
           0.1333 (125)  0.1359 (126)  0.2564 (127)  0.1119 (133)
 CRD 52=   0.1384 (  4) -0.1776 (  8) -0.1205 ( 11) -0.1102 ( 13)  0.1872 ( 14)
           0.1044 ( 23) -0.1190 ( 24)  0.1172 ( 26)  0.1061 ( 28)  0.1620 ( 32)
          -0.1416 ( 35) -0.2423 ( 38) -0.1060 ( 40) -0.1578 ( 45)  0.1012 ( 47)
           0.2018 ( 48) -0.1085 ( 50)  0.1036 ( 57) -0.1105 ( 67) -0.1443 ( 70)
          -0.1684 ( 72) -0.1177 ( 73) -0.1550 ( 77) -0.1416 ( 78)  0.1001 ( 79)
           0.2031 ( 81) -0.1279 (100)  0.2335 (101)  0.1108 (107)  0.1263 (118)
          -0.2036 (119) -0.2085 (123)  0.1163 (125)  0.2087 (127)
 CRD 53=   0.1122 (  5)  0.1203 (  7)  0.1104 (  8) -0.1215 (  9) -0.1930 ( 11)
           0.1037 ( 14) -0.1901 ( 15)  0.2391 ( 22) -0.1132 ( 24)  0.1466 ( 36)
           0.1097 ( 37) -0.3613 ( 38) -0.1952 ( 45)  0.2461 ( 48) -0.1355 ( 65)
          -0.2013 ( 66)  0.1082 ( 77) -0.1436 ( 80)  0.1731 ( 87)  0.1448 ( 88)
          -0.1137 ( 89)  0.2077 (101) -0.1673 (114) -0.1894 (115)  0.1298 (123)
          -0.1072 (127)
 CRD 54=   0.2506 (  7)  0.1227 ( 11)  0.1840 ( 14)  0.4246 ( 15) -0.1216 ( 27)
          -0.1367 ( 28)  0.2330 ( 33) -0.2029 ( 37)  0.3268 ( 44) -0.1217 ( 47)
           0.2366 ( 48) -0.1408 ( 59) -0.1328 ( 61)  0.1615 ( 65) -0.1626 ( 79)
           0.1671 ( 80)  0.1298 ( 99)  0.1673 (100)  0.1954 (101) -0.1040 (102)
          -0.1090 (103)

 THE DETERMINANT OF THE G MATRIX IS 10**(   -13)


                     --------------------
                     INTERNAL COORDINATES
                     --------------------

                 - - ATOMS - -         COORDINATE      COORDINATE
 NO.   TYPE    I  J  K  L  M  N        (BOHR,RAD)       (ANG,DEG)
 ----------------------------------------------------------------
   1 STRETCH   4 18                     3.7944240       2.0079229
   2 STRETCH   6 17                     3.9291273       2.0792048
   3 STRETCH  17 18                     3.7477186       1.9832074
   4 STRETCH   1  9                     2.0981635       1.1103004
   5 STRETCH   1  8                     2.1006061       1.1115929
   6 STRETCH   1  2                     2.8884677       1.5285114
   7 STRETCH   1  6                     2.8850917       1.5267249
   8 STRETCH   2 10                     2.1083188       1.1156743
   9 STRETCH   2  3                     2.8669701       1.5171353
  10 STRETCH   2 11                     2.0986839       1.1105758
  11 STRETCH   3  4                     2.8357145       1.5005956
  12 STRETCH   3 12                     2.0987685       1.1106205
  13 STRETCH   3 13                     2.1031868       1.1129586
  14 STRETCH   4  6                     2.5726178       1.3613708
  15 STRETCH   4  5                     2.8446393       1.5053184
  16 STRETCH   5 15                     2.0976117       1.1100084
  17 STRETCH   5 14                     2.0973006       1.1098437
  18 STRETCH   5 16                     2.0978083       1.1101124
  19 STRETCH   6  7                     2.0932470       1.1076987
  20 STRETCH  17 20                     2.2383538       1.1844859
  21 STRETCH  17 19                     2.2355941       1.1830255
  22 BEND      1  6 17                  1.8442911     105.6700972
  23 BEND      1  2 10                  1.8895634     108.2640051
  24 BEND      1  6  4                  1.8739628     107.3701574
  25 BEND      1  2 11                  2.0028549     114.7551331
  26 BEND      1  6  7                  2.1980876     125.9411452
  27 BEND      1  2  3                  1.7755801     101.7332455
  28 BEND      2  3 13                  1.8888551     108.2234263
  29 BEND      2  1  6                  1.7815574     102.0757191
  30 BEND      2  1  9                  1.9477452     111.5975769
  31 BEND      2  3 12                  1.9938523     114.2393217
  32 BEND      2  1  8                  1.9077468     109.3058395
  33 BEND      2  3  4                  1.7341576      99.3599110
  34 BEND      3  2 10                  1.8800083     107.7165397
  35 BEND      3  2 11                  2.0149333     115.4471741
  36 BEND      3  4 18                  1.6624880      95.2535486
  37 BEND      3  4  6                  1.9330222     110.7540164
  38 BEND      3  4  5                  2.1773871     124.7550908
  39 BEND      4 18 17                  1.5465159      88.6088313
  40 BEND      4  3 12                  2.0078708     115.0425236
  41 BEND      4  6 17                  1.8564250     106.3653186
  42 BEND      4  6  7                  2.0503889     117.4786279
  43 BEND      4  3 13                  1.9135176     109.6364843
  44 BEND      4  5 16                  1.9139089     109.6589009
  45 BEND      4  5 14                  1.9255541     110.3261236
  46 BEND      4  5 15                  1.9262672     110.3669814
  47 BEND      5  4 18                  1.6313765      93.4709877
  48 BEND      5  4  6                  2.1570865     123.5919510
  49 BEND      6  4 18                  1.5811570      90.5936243
  50 BEND      6  1  9                  1.9896173     113.9966769
  51 BEND      6 17 19                  2.0352490     116.6111806
  52 BEND      6  1  8                  1.9227779     110.1670611
  53 BEND      6 17 20                  1.9360508     110.9275402
  54 BEND      6 17 18                  1.2863300      73.7012825
  55 BEND      7  6 17                  1.5649153      89.6630409
  56 BEND      8  1  9                  1.9103219     109.4533825
  57 BEND     10  2 11                  1.8931251     108.4680782
  58 BEND     12  3 13                  1.9160217     109.7799576
  59 BEND     14  5 16                  1.8987278     108.7890869
  60 BEND     14  5 15                  1.8993728     108.8260444
  61 BEND     15  5 16                  1.8995480     108.8360811
  62 BEND     18 17 19                  2.0471742     117.2944392
  63 BEND     18 17 20                  2.0277479     116.1813986
  64 BEND     19 17 20                  2.0138173     115.3832323
  65 TORSION   1  6  4  5               2.7871070     159.6894702
  66 TORSION   1  6  4 18              -1.8456312    -105.7468765
  67 TORSION   1  2  3 13               1.2655495      72.5106464
  68 TORSION   1  2  3 12              -2.8776358    -164.8763875
  69 TORSION   1  6  4  3              -0.1728093      -9.9012430
  70 TORSION   1  6 17 19              -0.1098396      -6.2933461
  71 TORSION   1  6 17 20              -2.4629407    -141.1161059
  72 TORSION   1  2  3  4              -0.7308149     -41.8726114
  73 TORSION   1  6 17 18               1.8592861     106.5292480
  74 TORSION   2  1  6 17              -2.2819412    -130.7455989
  75 TORSION   2  3  4 18               2.1960393     125.8237815
  76 TORSION   2  3  4  6               0.5792566      33.1889584
  77 TORSION   2  1  6  4              -0.3057617     -17.5188549
  78 TORSION   2  1  6  7               2.2333455     127.9612712
  79 TORSION   2  3  4  5              -2.3781096    -136.2556424
  80 TORSION   3  4 18 17              -2.0587653    -117.9585647
  81 TORSION   3  2  1  6               0.6493504      37.2050352
  82 TORSION   3  2  1  8              -1.3865450     -79.4431766
  83 TORSION   3  2  1  9               2.7810878     159.3445953
  84 TORSION   3  4  5 16               1.9762803     113.2325189
  85 TORSION   3  4  5 14              -0.1147303      -6.5735618
  86 TORSION   3  4  5 15              -2.2144352    -126.8777923
  87 TORSION   3  4  6 17               1.7951604     102.8551143
  88 TORSION   3  4  6  7              -2.7708859    -158.7600663
  89 TORSION   4  3  2 11              -2.9111124    -166.7944571
  90 TORSION   4  3  2 10               1.2540860      71.8538351
  91 TORSION   4  6  1  8               1.7192395      98.5051682
  92 TORSION   4  6 17 19              -2.0982047    -120.2182763
  93 TORSION   4  6 17 20               1.8318795     104.9589640
  94 TORSION   4  6 17 18              -0.1290790      -7.3956822
  95 TORSION   4  6  1  9              -2.4085638    -138.0005411
  96 TORSION   4 18 17 19               2.0382746     116.7845314
  97 TORSION   4 18 17 20              -1.7612960    -100.9148291
  98 TORSION   4 18 17  6               0.0838598       4.8048099
  99 TORSION   5  4  6  7               0.1890304      10.8306469
 100 TORSION   5  4  6 17              -1.5281086     -87.5541725
 101 TORSION   5  4 18 17               2.0359947     116.6539011
 102 TORSION   5  4  3 13               1.9278577     110.4581076
 103 TORSION   5  4  3 12              -0.2412985     -13.8253829
 104 TORSION   6  4  5 15               1.1342767      64.9892697
 105 TORSION   6  4  5 14              -3.0492036    -174.7064997
 106 TORSION   6  4  5 16              -0.9581931     -54.9004190
 107 TORSION   6  1  2 10              -1.3284221     -76.1129784
 108 TORSION   6  4 18 17              -0.1231040      -7.0533376
 109 TORSION   6  1  2 11               2.8376833     162.5872740
 110 TORSION   6  4  3 13              -1.3979615     -80.0972917
 111 TORSION   6  4  3 12               2.7160677     155.6192179
 112 TORSION   7  6 17 19               2.1144607     121.1496765
 113 TORSION   7  6  4 18               1.8394776     105.3943003
 114 TORSION   7  6  1  8              -2.0248386    -116.0147056
 115 TORSION   7  6  1  9               0.1305434       7.4795850
 116 TORSION   7  6 17 18              -2.1995988    -126.0277293
 117 TORSION   7  6 17 20              -0.2386403     -13.6730832
 118 TORSION   8  1  6 17              -0.2569400     -14.7215758
 119 TORSION   8  1  2 11               0.8017879      45.9390622
 120 TORSION   8  1  2 10               2.9188679     167.2388098
 121 TORSION   9  1  2 10               0.8033154      46.0265817
 122 TORSION   9  1  6 17               1.8984420     108.7727149
 123 TORSION   9  1  2 11              -1.3137646     -75.2731658
 124 TORSION  10  2  3 13              -3.0327348    -173.7629071
 125 TORSION  10  2  3 12              -0.8927349     -51.1499410
 126 TORSION  11  2  3 13              -0.9147480     -52.4111992
 127 TORSION  11  2  3 12               1.2252520      70.2017668
 128 TORSION  12  3  4 18              -1.9503349    -111.7459590
 129 TORSION  13  3  4 18               0.2188212      12.5375315
 130 TORSION  14  5  4 18               1.6104140      92.2699248
 131 TORSION  15  5  4 18              -0.4892909     -28.0343057
 132 TORSION  16  5  4 18              -2.5817607    -147.9239945
 133 TORSION  17  6  4 18               0.1223385       7.0094809

     ------------------------------------------
     THE POINT GROUP IS C1 , NAXIS= 0, ORDER= 1
     ------------------------------------------

     DIMENSIONS OF THE SYMMETRY SUBSPACES ARE
 A   =   48

 ..... DONE SETTING UP THE RUN .....
 STEP CPU TIME =     0.06 TOTAL CPU TIME =          0.1 (      0.0 MIN)
 TOTAL WALL CLOCK TIME=          0.1 SECONDS, CPU UTILIZATION IS    85.71%


          -----------------------------
          STATIONARY POINT LOCATION RUN
          -----------------------------


           ** GEOMETRY CONSTRAINTS ARE BEING APPLIED. **

          TRANSFORMING DISPLACEMENT FROM INTERNALS TO CARTESIANS
          THE ROOT MEAN SQUARE ERROR IN ITERATION   1 IS   0.00000210
          THE ROOT MEAN SQUARE ERROR IN ITERATION   2 IS   0.00000000
 WARNING! THE RADIUS IN CARTESIANS IS    0.00795
 OBTAINING INITIAL HESSIAN, HESS=CALC    

     ---------------------------------
     HESSIAN MATRIX CONTROL PARAMETERS
     ---------------------------------
     METHOD=ANALYTIC   NVIB  =       2   VIBSIZ= 0.01000
     RDHESS=       F   PURIFY=       F   PRTIFC=       F
     VIBANL=       F   DECOMP=       F   PROJCT=       F
     SCLFAC= 1.00000   PRTSCN=       F   NPRT  =       0
     PULCOR=       F   NPUN  =       0   REDOVB=       T
     HSSTYP=GENERAL 
 Old integral subroutine is used

     ------------------------------
     CPHF RESPONSE SOLUTION OPTIONS
     ------------------------------
     POLAR  =       F     NWORD  =       0
     CPHF   =AO      

          ********************
          1 ELECTRON INTEGRALS
          ********************
 ...... END OF ONE-ELECTRON INTEGRALS ......
 STEP CPU TIME =     0.04 TOTAL CPU TIME =          0.1 (      0.0 MIN)
 TOTAL WALL CLOCK TIME=          0.1 SECONDS, CPU UTILIZATION IS    83.33%

          -------------
          GUESS OPTIONS
          -------------
          GUESS =HUCKEL            NORB  =       0          NORDER=       0
          MIX   =       F          PRTMO =       F          PUNMO =       F
          TOLZ  = 1.0E-08          TOLE  = 1.0E-05
          SYMDEN=       F          PURIFY=       F

 INITIAL GUESS ORBITALS GENERATED BY HUCKEL   ROUTINE.
 HUCKEL GUESS REQUIRES     39252 WORDS.

 SYMMETRIES FOR INITIAL GUESS ORBITALS FOLLOW.   BOTH SET(S).
    27 ORBITALS ARE OCCUPIED (    7 CORE ORBITALS).
     8=A        9=A       10=A       11=A       12=A       13=A       14=A   
    15=A       16=A       17=A       18=A       19=A       20=A       21=A   
    22=A       23=A       24=A       25=A       26=A       27=A       28=A   
    29=A       30=A       31=A       32=A       33=A       34=A       35=A   
    36=A       37=A   
 ...... END OF INITIAL ORBITAL SELECTION ......
 STEP CPU TIME =     0.02 TOTAL CPU TIME =          0.1 (      0.0 MIN)
 TOTAL WALL CLOCK TIME=          0.2 SECONDS, CPU UTILIZATION IS    80.00%

                    ----------------------
                    AO INTEGRAL TECHNOLOGY
                    ----------------------
     S,P,L SHELL ROTATED AXIS INTEGRALS, REPROGRAMMED BY
        KAZUYA ISHIMURA (IMS) AND JOSE SIERRA (SYNSTAR).
     S,P,D,L SHELL ROTATED AXIS INTEGRALS PROGRAMMED BY
        KAZUYA ISHIMURA (INSTITUTE FOR MOLECULAR SCIENCE).
     S,P,D,F,G SHELL TO TOTAL QUARTET ANGULAR MOMENTUM SUM 5,
        ERIC PROGRAM BY GRAHAM FLETCHER (ELORET AND NASA ADVANCED
        SUPERCOMPUTING DIVISION, AMES RESEARCH CENTER).
     S,P,D,F,G,L SHELL GENERAL RYS QUADRATURE PROGRAMMED BY
        MICHEL DUPUIS (PACIFIC NORTHWEST NATIONAL LABORATORY).

          --------------------
          2 ELECTRON INTEGRALS
          --------------------

 THE -PK- OPTION IS OFF, THE INTEGRALS ARE NOT IN SUPERMATRIX FORM.
 STORING   15000 INTEGRALS/RECORD ON DISK, USING 12 BYTES/INTEGRAL.
 TWO ELECTRON INTEGRAL EVALUATION REQUIRES   89734 WORDS OF MEMORY.
 SCHWARZ INEQUALITY OVERHEAD:      1167 INTEGRALS, T=        0.00
 II,JST,KST,LST =  1  1  1  1 NREC =         1 INTLOC =    1
 II,JST,KST,LST =  2  1  1  1 NREC =         1 INTLOC =    2
 II,JST,KST,LST =  3  1  1  1 NREC =         1 INTLOC =   34
 II,JST,KST,LST =  4  1  1  1 NREC =         1 INTLOC =  140
 II,JST,KST,LST =  5  1  1  1 NREC =         1 INTLOC = 1358
 II,JST,KST,LST =  6  1  1  1 NREC =         1 INTLOC = 1936
 II,JST,KST,LST =  7  1  1  1 NREC =         1 INTLOC = 6816
 II,JST,KST,LST =  8  1  1  1 NREC =         1 INTLOC = 8517
 II,JST,KST,LST =  9  1  1  1 NREC =         2 INTLOC = 5956
 II,JST,KST,LST = 10  1  1  1 NREC =         2 INTLOC = 9599
 II,JST,KST,LST = 11  1  1  1 NREC =         4 INTLOC = 4631
 II,JST,KST,LST = 12  1  1  1 NREC =         4 INTLOC =11886
 II,JST,KST,LST = 13  1  1  1 NREC =         7 INTLOC =12091
 II,JST,KST,LST = 14  1  1  1 NREC =         8 INTLOC =11597
 II,JST,KST,LST = 15  1  1  1 NREC =         9 INTLOC =12437
 II,JST,KST,LST = 16  1  1  1 NREC =        10 INTLOC =14745
 II,JST,KST,LST = 17  1  1  1 NREC =        12 INTLOC = 3972
 II,JST,KST,LST = 18  1  1  1 NREC =        13 INTLOC = 9602
 II,JST,KST,LST = 19  1  1  1 NREC =        15 INTLOC = 2412
 II,JST,KST,LST = 20  1  1  1 NREC =        16 INTLOC =12280
 II,JST,KST,LST = 21  1  1  1 NREC =        18 INTLOC = 8786
 II,JST,KST,LST = 22  1  1  1 NREC =        20 INTLOC = 7318
 II,JST,KST,LST = 23  1  1  1 NREC =        22 INTLOC = 8457
 II,JST,KST,LST = 24  1  1  1 NREC =        24 INTLOC = 3819
 II,JST,KST,LST = 25  1  1  1 NREC =        34 INTLOC =12967
 II,JST,KST,LST = 26  1  1  1 NREC =        38 INTLOC =  460
 II,JST,KST,LST = 27  1  1  1 NREC =        41 INTLOC = 4418
 SCHWARZ INEQUALITY TEST SKIPPED        8498 INTEGRAL BLOCKS.
 TOTAL NUMBER OF NONZERO TWO-ELECTRON INTEGRALS =              655799
         44 INTEGRAL RECORDS WERE STORED ON DISK FILE  8.
  ...... END OF TWO-ELECTRON INTEGRALS .....
 STEP CPU TIME =     0.19 TOTAL CPU TIME =          0.3 (      0.0 MIN)
 TOTAL WALL CLOCK TIME=          0.4 SECONDS, CPU UTILIZATION IS    88.57%

          --------------------------
                 RHF SCF CALCULATION
          --------------------------

     NUCLEAR ENERGY =       301.9018819378
     MAXIT =   30     NPUNCH=    2
     EXTRAP=T  DAMP=F  SHIFT=F  RSTRCT=F  DIIS=F  DEM=F  SOSCF=T
     DENSITY MATRIX CONV=  1.00E-05
     SOSCF WILL OPTIMIZE     567 ORBITAL ROTATIONS, SOGTOL=   0.250
     MEMORY REQUIRED FOR RHF ITERS=     49068 WORDS.

 ITER EX DEM     TOTAL ENERGY        E CHANGE  DENSITY CHANGE     ORB. GRAD
   1  0  0     -255.6943109853  -255.6943109853   0.308975019   0.000000000
          ---------------START SECOND ORDER SCF---------------
   2  1  0     -256.0595098872    -0.3651989019   0.111582429   0.035098844
   3  2  0     -256.0818145758    -0.0223046886   0.047242274   0.019627670
   4  3  0     -256.0865083859    -0.0046938101   0.010886683   0.004202069
   5  4  0     -256.0868748001    -0.0003664142   0.014604237   0.002372735
   6  5  0     -256.0870285323    -0.0001537322   0.013283396   0.001277906
   7  6  0     -256.0870959902    -0.0000674579   0.002950867   0.000376326
   8  7  0     -256.0871049572    -0.0000089670   0.000660875   0.000138263
   9  8  0     -256.0871062081    -0.0000012509   0.000200370   0.000064039
  10  9  0     -256.0871063294    -0.0000001213   0.000076054   0.000018068
  11 10  0     -256.0871063458    -0.0000000164   0.000024117   0.000008297
  12 11  0     -256.0871063473    -0.0000000014   0.000008870   0.000002559
  13 12  0     -256.0871063474    -0.0000000002   0.000001656   0.000000489

          -----------------
          DENSITY CONVERGED
          -----------------
     TIME TO FORM FOCK OPERATORS=       0.2 SECONDS (       0.0 SEC/ITER)
     TIME TO SOLVE SCF EQUATIONS=       0.1 SECONDS (       0.0 SEC/ITER)

 FINAL RHF ENERGY IS     -256.0871063474 AFTER  13 ITERATIONS

          ------------
          EIGENVECTORS
          ------------

                      1          2          3          4          5
                  -11.1392   -11.0813   -11.0768   -11.0590   -11.0494
                     A          A          A          A          A   
    1  C  1  S   -0.000394  -0.000146  -0.002053  -0.012686   0.991891
    2  C  1  S    0.000152  -0.000063  -0.000072  -0.006213   0.037020
    3  C  1  X   -0.000002  -0.000029  -0.000226   0.002588   0.000099
    4  C  1  Y    0.000146   0.000047   0.000174   0.003357  -0.000613
    5  C  1  Z   -0.000079  -0.000024  -0.000258  -0.000305   0.000163
    6  C  2  S   -0.000768   0.000068  -0.005734   0.991853   0.013639
    7  C  2  S   -0.000023   0.000010  -0.006070   0.037201  -0.005283
    8  C  2  X   -0.000485   0.000002  -0.002554   0.000801  -0.002382
    9  C  2  Y    0.000023  -0.000015   0.002944  -0.000200  -0.003538
   10  C  2  Z    0.000305  -0.000006  -0.001842  -0.000286   0.000333
   11  C  3  S   -0.001067  -0.001722   0.991891   0.006653   0.002262
   12  C  3  S   -0.005758   0.000053   0.037567  -0.005617   0.000006
   13  C  3  X   -0.003439   0.000051   0.000467   0.002860  -0.000152
   14  C  3  Y   -0.000722  -0.000129   0.000921  -0.002744  -0.000355
   15  C  3  Z    0.002198  -0.000036  -0.000572   0.001729  -0.000024
   16  C  4  S    0.992335   0.002445   0.002003   0.000930   0.000489
   17  C  4  S    0.035081  -0.005972  -0.006159  -0.000102   0.000268
   18  C  4  X   -0.000490  -0.002727   0.003633   0.000310   0.000022
   19  C  4  Y    0.001583   0.003084   0.001034  -0.000203   0.000013
   20  C  4  Z   -0.000320   0.001765  -0.002405   0.000170  -0.000073
   21  C  5  S   -0.001496   0.991979   0.001726  -0.000064   0.000162
   22  C  5  S   -0.005574   0.037394   0.000242  -0.000043  -0.000068
   23  C  5  X    0.002509  -0.000326  -0.000106  -0.000025   0.000012
   24  C  5  Y   -0.002829   0.000302  -0.000085  -0.000019  -0.000065
   25  C  5  Z   -0.001510   0.000077   0.000087  -0.000071  -0.000009
   26  C  6  S    0.002271  -0.000151  -0.000377  -0.000633  -0.002182
   27  C  6  S   -0.007277   0.000178   0.000222   0.000195  -0.005883
   28  C  6  X    0.000129   0.000065  -0.000062   0.000053   0.003774
   29  C  6  Y    0.004381  -0.000020  -0.000022   0.000123  -0.001731
   30  C  6  Z   -0.000915  -0.000110  -0.000075   0.000089  -0.001003
   31  H  7  S    0.000078  -0.000169  -0.000086  -0.000011   0.000067
   32  H  8  S    0.000001   0.000006   0.000085   0.000103  -0.006757
   33  H  9  S   -0.000065  -0.000008  -0.000147   0.000199  -0.006695
   34  H 10  S   -0.000194   0.000017   0.000051  -0.006784  -0.000066
   35  H 11  S   -0.000207   0.000002   0.000168  -0.006646   0.000031
   36  H 12  S    0.000051  -0.000029  -0.006661   0.000080  -0.000176
   37  H 13  S   -0.000036   0.000022  -0.006759  -0.000040  -0.000009
   38  H 14  S   -0.000018  -0.006723  -0.000141  -0.000011  -0.000008
   39  H 15  S   -0.000025  -0.006693  -0.000020   0.000012  -0.000009
   40  H 16  S   -0.000102  -0.006757  -0.000007  -0.000001   0.000003
   41  B 17  S    0.000008  -0.000009  -0.000007   0.000004   0.000013
   42  B 17  S    0.000111   0.000042   0.000032  -0.000033  -0.000000
   43  B 17  X    0.000032   0.000002  -0.000030   0.000009   0.000050
   44  B 17  Y    0.000107  -0.000050  -0.000017  -0.000006  -0.000087
   45  B 17  Z    0.000089  -0.000012   0.000005   0.000041  -0.000042
   46  H 18  S   -0.001804  -0.000032   0.000041  -0.000022   0.000016
   47  H 19  S   -0.000064   0.000005  -0.000002  -0.000005   0.000148
   48  H 20  S   -0.000013   0.000012   0.000003   0.000012  -0.000024

                      6          7          8          9         10
                  -10.9963    -7.3821    -1.1344    -0.9978    -0.9348
                     A          A          A          A          A   
    1  C  1  S    0.003151   0.000026  -0.082849   0.085790   0.107182
    2  C  1  S   -0.005636   0.000214   0.211017  -0.236162  -0.309232
    3  C  1  X   -0.003668  -0.000184   0.015063   0.036323  -0.071194
    4  C  1  Y    0.001769  -0.000035  -0.056311   0.040833  -0.004443
    5  C  1  Z    0.001135   0.000061  -0.000710  -0.009761   0.022969
    6  C  2  S    0.000749   0.000004  -0.092940   0.111580  -0.053674
    7  C  2  S    0.000149  -0.000052   0.236997  -0.310181   0.154063
    8  C  2  X   -0.000234  -0.000026   0.063134  -0.034863  -0.000178
    9  C  2  Y    0.000116  -0.000038  -0.006226  -0.018315  -0.107775
   10  C  2  Z    0.000128   0.000053   0.006943  -0.003805   0.040339
   11  C  3  S    0.000451  -0.000008  -0.111998   0.036804  -0.145783
   12  C  3  S    0.000226   0.000029   0.290780  -0.099240   0.424482
   13  C  3  X    0.000011   0.000033   0.027729   0.072725  -0.020335
   14  C  3  Y   -0.000163   0.000003   0.049675  -0.047432  -0.010373
   15  C  3  Z   -0.000079   0.000034  -0.050150  -0.000608  -0.008702
   16  C  4  S   -0.001610   0.000030  -0.139043  -0.102964   0.005076
   17  C  4  S   -0.008161   0.000070   0.361477   0.291529  -0.012215
   18  C  4  X   -0.000257   0.000009  -0.048374   0.092983  -0.071245
   19  C  4  Y   -0.004766  -0.000019   0.048241  -0.054661  -0.164480
   20  C  4  Z    0.001347   0.000118  -0.000548  -0.060876   0.076104
   21  C  5  S    0.000171  -0.000013  -0.053694  -0.155021  -0.029496
   22  C  5  S    0.000285   0.000090   0.144374   0.434808   0.085237
   23  C  5  X   -0.000084   0.000037  -0.030429  -0.034000  -0.013215
   24  C  5  Y    0.000038  -0.000001   0.031937   0.040094  -0.019095
   25  C  5  Z    0.000041   0.000052   0.016263   0.015871   0.010623
   26  C  6  S    0.991955   0.000533  -0.103850  -0.021671   0.137930
   27  C  6  S    0.037072  -0.003011   0.253486   0.060058  -0.380289
   28  C  6  X   -0.000806  -0.001827  -0.040896   0.053414   0.036855
   29  C  6  Y   -0.002769  -0.001258  -0.067359  -0.070388   0.006422
   30  C  6  Z    0.000050  -0.001941   0.026122  -0.008054  -0.003936
   31  H  7  S   -0.006584  -0.000614   0.042450   0.023897  -0.105688
   32  H  8  S   -0.000003  -0.000725   0.037040  -0.054932  -0.076913
   33  H  9  S    0.000017  -0.000024   0.032824  -0.053556  -0.083733
   34  H 10  S   -0.000102  -0.000008   0.046307  -0.070795   0.040365
   35  H 11  S   -0.000148   0.000002   0.036833  -0.071813   0.045432
   36  H 12  S   -0.000104   0.000003   0.048130  -0.016576   0.129612
   37  H 13  S   -0.000013  -0.000025   0.052272  -0.026919   0.107664
   38  H 14  S   -0.000085  -0.000002   0.025410   0.101713   0.038032
   39  H 15  S   -0.000013  -0.000148   0.024440   0.101513   0.016402
   40  H 16  S   -0.000062   0.000021   0.026906   0.107474   0.017506
   41  B 17  S    0.000410   0.991083  -0.007646  -0.003421   0.017343
   42  B 17  S   -0.002698   0.035277   0.015634   0.007884  -0.037953
   43  B 17  X    0.001826   0.000175  -0.005981  -0.000876   0.012906
   44  B 17  Y    0.001166   0.001675  -0.003504  -0.004419   0.002175
   45  B 17  Z    0.001584  -0.000784  -0.005133  -0.002513   0.013139
   46  H 18  S    0.000014  -0.002532   0.007839   0.010721  -0.002997
   47  H 19  S    0.000166  -0.006350   0.002947  -0.000276  -0.011493
   48  H 20  S    0.000272  -0.006388   0.002527   0.002583  -0.010377

                     11         12         13         14         15
                   -0.8836    -0.7640    -0.6874    -0.6382    -0.6290
                     A          A          A          A          A   
    1  C  1  S   -0.091410   0.113224  -0.026522   0.019211  -0.007280
    2  C  1  S    0.269195  -0.355519   0.081952  -0.064378   0.025410
    3  C  1  X   -0.091042  -0.045306  -0.105499   0.030859  -0.135074
    4  C  1  Y   -0.000456  -0.126648  -0.037916  -0.137915   0.157576
    5  C  1  Z    0.008959  -0.036829   0.013311   0.209819   0.127069
    6  C  2  S   -0.097830  -0.120127   0.000126  -0.011438  -0.015981
    7  C  2  S    0.291973   0.380848  -0.000465   0.037879   0.053544
    8  C  2  X   -0.029560  -0.113997   0.067204   0.085890  -0.220082
    9  C  2  Y    0.077766  -0.068818   0.100291   0.061388   0.106709
   10  C  2  Z   -0.025034  -0.063022  -0.095864   0.202134   0.123844
   11  C  3  S    0.066382   0.071355   0.056396   0.009438   0.015640
   12  C  3  S   -0.196262  -0.226714  -0.189130  -0.032485  -0.047951
   13  C  3  X   -0.086944  -0.103683   0.193601   0.015640   0.048139
   14  C  3  Y    0.015229   0.079123   0.084943   0.298769  -0.050638
   15  C  3  Z   -0.000443  -0.094247  -0.176378   0.143379   0.134805
   16  C  4  S    0.075160  -0.025062  -0.108033   0.016551  -0.064735
   17  C  4  S   -0.226658   0.076976   0.365974  -0.067465   0.230724
   18  C  4  X    0.105258   0.075524  -0.091539  -0.005486   0.224226
   19  C  4  Y   -0.143624   0.135495  -0.083466   0.209602  -0.118692
   20  C  4  Z   -0.054648  -0.116456   0.030708   0.082732   0.003774
   21  C  5  S   -0.136867   0.015568   0.024825  -0.021391   0.024473
   22  C  5  S    0.404746  -0.049756  -0.080155   0.075678  -0.085229
   23  C  5  X    0.031051   0.002487  -0.131117   0.182116  -0.084834
   24  C  5  Y   -0.042419   0.064686   0.066574  -0.046483   0.214762
   25  C  5  Z   -0.025897  -0.020575   0.080631  -0.048803   0.175031
   26  C  6  S    0.071338  -0.039326   0.091213   0.009305   0.034374
   27  C  6  S   -0.195909   0.110375  -0.300906  -0.042289  -0.107249
   28  C  6  X   -0.032682   0.091602  -0.132319  -0.033176   0.182237
   29  C  6  Y    0.093480  -0.130306  -0.150746  -0.092391  -0.036481
   30  C  6  Z   -0.016912  -0.052513   0.103869   0.174417   0.041694
   31  H  7  S   -0.051097   0.073499  -0.260941  -0.141823  -0.003097
   32  H  8  S    0.078514  -0.175120   0.017279   0.069203   0.148817
   33  H  9  S    0.092688  -0.146112   0.031846  -0.202862   0.056276
   34  H 10  S    0.087191   0.194270   0.028732  -0.163583  -0.054436
   35  H 11  S    0.099505   0.164864  -0.059794   0.042795   0.218927
   36  H 12  S   -0.050663  -0.104368  -0.164673  -0.233755  -0.004744
   37  H 13  S   -0.060443  -0.127777  -0.151248   0.146445   0.079382
   38  H 14  S    0.130146  -0.061322  -0.035852   0.005806  -0.127070
   39  H 15  S    0.123521  -0.011086  -0.092803   0.138501  -0.025007
   40  H 16  S    0.131628  -0.000677  -0.084887   0.057102  -0.163818
   41  B 17  S    0.009803   0.000307   0.062246  -0.017829  -0.075509
   42  B 17  S   -0.022811  -0.001111  -0.152370   0.047030   0.192104
   43  B 17  X    0.006248   0.007696   0.004108  -0.010440   0.010651
   44  B 17  Y    0.005932  -0.007687  -0.016585  -0.003640   0.014424
   45  B 17  Z    0.007554  -0.009605   0.033934   0.012310  -0.001683
   46  H 18  S   -0.011259  -0.004411  -0.007480   0.031472   0.073941
   47  H 19  S   -0.003689  -0.011582  -0.066665   0.029465   0.104472
   48  H 20  S   -0.006304   0.005470  -0.081989   0.011781   0.104172

                     16         17         18         19         20
                   -0.5994    -0.5626    -0.5523    -0.5311    -0.5009
                     A          A          A          A          A   
    1  C  1  S    0.013080   0.004587   0.015055  -0.008883  -0.006974
    2  C  1  S   -0.045045  -0.015178  -0.050055   0.030959   0.028454
    3  C  1  X    0.067438   0.004425   0.077752   0.179876  -0.048409
    4  C  1  Y   -0.055933  -0.029419  -0.040977   0.049789  -0.124960
    5  C  1  Z    0.004340  -0.142112   0.108745   0.310363   0.072201
    6  C  2  S   -0.010273  -0.003794  -0.013622   0.002655  -0.022120
    7  C  2  S    0.035280   0.013008   0.046886  -0.009609   0.086322
    8  C  2  X    0.053737  -0.040810  -0.123211  -0.010363   0.352557
    9  C  2  Y   -0.057957   0.020870   0.052813  -0.157520  -0.030056
   10  C  2  Z   -0.131696  -0.095238   0.164472   0.080304   0.125225
   11  C  3  S    0.013985   0.003011   0.020841   0.006366  -0.015590
   12  C  3  S   -0.051448  -0.011960  -0.074275  -0.021240   0.063885
   13  C  3  X    0.071766   0.072111   0.051222  -0.217614  -0.105059
   14  C  3  Y    0.021477  -0.000940   0.051556  -0.194854   0.242720
   15  C  3  Z   -0.174248   0.078307   0.016767  -0.267110  -0.131707
   16  C  4  S    0.007550   0.007790   0.000707   0.000652   0.015176
[...]
 19   H            X -0.00996459  0.00360480 -0.00187063 -0.35797841  0.33891793
                   Y  0.00506844 -0.00163798  0.00091748  0.34550353 -0.32677416
                   Z -0.00950228  0.00148762  0.00075968  0.48257278 -0.45454994
 20   H            X -0.00434530  0.00371053 -0.00308447  0.62576004  0.58932130
                   Y  0.00240622 -0.00152628 -0.00167382  0.10627880  0.10036478
                   Z -0.01125033  0.00773066 -0.00635358 -0.27988101 -0.26475791

 TRANS. SAYVETZ    X -0.00000015  0.00000002 -0.00000095 -0.00000028 -0.00000001
                   Y -0.00000056  0.00000040 -0.00000031  0.00000009 -0.00000001
                   Z -0.00000074  0.00000019  0.00000004  0.00000003  0.00000000
               TOTAL  0.00000094  0.00000045  0.00000100  0.00000030  0.00000002

   ROT. SAYVETZ    X -0.00517897 -0.00391197  0.00571762 -0.00427636  0.01858327
                   Y  0.00585494  0.00141927 -0.00364685  0.00112539 -0.00985204
                   Z  0.00327199  0.00209433 -0.00288140  0.00314624  0.02711012
               TOTAL  0.00847396  0.00465875  0.00736839  0.00542702  0.03431267

                           51          52          53          54          55
       FREQUENCY:      3565.90     3608.92     3619.61     3629.36     3720.74  
        SYMMETRY:         A           A           A           A           A   
    REDUCED MASS:      1.03936     1.06614     1.06709     1.06891     1.11104
    IR INTENSITY:      0.01017     0.06334     0.06167     0.01717     0.00712

  1   C            X -0.00005617 -0.02282525 -0.00285187 -0.00122255 -0.02493209
                   Y  0.00008689  0.06429016  0.01691809  0.00656971 -0.01914648
                   Z -0.00001689 -0.00737392 -0.00057721  0.00017057 -0.08519058
  2   C            X -0.00005745  0.01606025 -0.06372821 -0.02243543 -0.00349133
                   Y  0.00000438  0.00019465 -0.01338282 -0.00310419  0.00511612
                   Z  0.00001685  0.00136843 -0.00640649 -0.00491261  0.01211928
  3   C            X -0.00011498 -0.00069394  0.00523195 -0.00778346  0.00008749
                   Y -0.00004212  0.00033348  0.01756351 -0.05339038 -0.00047807
                   Z  0.00014173 -0.00046515 -0.01178846  0.04122587  0.00083277
  4   C            X -0.00179594  0.00042718 -0.00021355  0.00189425  0.00011093
                   Y  0.00206368 -0.00015533 -0.00057794  0.00076284  0.00015267
                   Z  0.00098842 -0.00000343  0.00056837 -0.00141759 -0.00030287
  5   C            X  0.02023602 -0.00007587 -0.00005166  0.00009799  0.00026359
                   Y -0.03622780  0.00001500  0.00000149  0.00026515  0.00006990
                   Z -0.03209092  0.00005914  0.00002693  0.00008779  0.00006874
  6   C            X  0.00012344  0.00012232 -0.00015202  0.00001513 -0.00167613
                   Y  0.00029565 -0.00201586 -0.00034440 -0.00028215 -0.00130619
                   Z -0.00011323  0.00148000  0.00066009  0.00034218  0.00387413
  7   H            X -0.00231313  0.01613941  0.00704724  0.00499400  0.02359246
                   Y -0.00141746  0.00925210  0.00320470  0.00353723  0.01396489
                   Z  0.00382056 -0.02166631 -0.00966536 -0.00821272 -0.03765404
  8   H            X  0.00015367 -0.01540860 -0.00200297 -0.00083183  0.00965754
                   Y -0.00112882 -0.49779065 -0.12258138 -0.04801054  0.47141762
                   Z -0.00105074 -0.46289915 -0.11653196 -0.04535820  0.42876698
  9   H            X  0.00007524  0.26808383  0.05468596  0.01852371  0.28397570
                   Y -0.00009912 -0.22202388 -0.04528025 -0.01464035 -0.24255758
                   Z  0.00055938  0.54298073  0.11404895  0.03765762  0.57103963
 10   H            X  0.00021117 -0.08031865  0.32704987  0.11334669 -0.03297136
                   Y  0.00021652 -0.07292529  0.28729260  0.10339623 -0.02826768
                   Z  0.00034830 -0.12125445  0.50375394  0.17536329 -0.05496662
 11   H            X  0.00060153 -0.10830832  0.38246370  0.11781857  0.07415740
                   Y -0.00026048  0.04261465 -0.15023150 -0.04779376 -0.02955849
                   Z -0.00067231  0.11748189 -0.42184346 -0.13109706 -0.07941345
 12   H            X  0.00046005 -0.00040346 -0.05783948  0.16173085  0.00096767
                   Y  0.00213788 -0.00476304 -0.23279715  0.66018373  0.00242202
                   Z  0.00037910 -0.00118417 -0.04695241  0.13763013  0.00061240
 13   H            X  0.00015328  0.00008817  0.02454393 -0.07065301 -0.00138510
                   Y -0.00007310  0.00110816  0.02060245 -0.06989220 -0.00083166
                   Z -0.00139389  0.00496017  0.18555100 -0.58770825 -0.00948877
 14   H            X -0.07026641  0.00008465 -0.00000535  0.00012770 -0.00004541
                   Y  0.40096631 -0.00071465  0.00007257 -0.00159874  0.00047279
                   Z -0.30873236  0.00027001 -0.00000426  0.00132828 -0.00044717
 15   H            X -0.46378995  0.00049880  0.00006350  0.00060969 -0.00269145
                   Y -0.19219689  0.00036608 -0.00002256  0.00051828 -0.00105636
                   Z  0.13541497 -0.00014571 -0.00006370 -0.00010627  0.00085681
 16   H            X  0.31604331 -0.00024677 -0.00017672 -0.00103175 -0.00082176
                   Y  0.19319671 -0.00012090 -0.00017586 -0.00044273 -0.00056502
                   Z  0.53918253 -0.00039716 -0.00044424 -0.00149273 -0.00148265
 17   B            X -0.00009799  0.00023748  0.00004139  0.00034985  0.00004013
                   Y  0.00013421 -0.00001892 -0.00000201 -0.00011660 -0.00006967
                   Z  0.00006429  0.00019916  0.00008578 -0.00000996 -0.00023440
 18   H            X  0.00085268 -0.00048834 -0.00094976  0.00371605 -0.00003501
                   Y  0.00001939 -0.00065921 -0.00008018  0.00075861  0.00024400
                   Z  0.00165216 -0.00054725  0.00020924 -0.00095067  0.00008497
 19   H            X  0.00003835  0.00046527  0.00019737 -0.00109792 -0.00103623
                   Y -0.00016990 -0.00034723 -0.00015905  0.00054631  0.00067099
                   Z  0.00015857 -0.00063909 -0.00033561  0.00052499  0.00087549
 20   H            X  0.00054000  0.00039266 -0.00009981 -0.00060775 -0.00091353
                   Y  0.00002329  0.00010364 -0.00007745  0.00027740  0.00005746
                   Z -0.00037584 -0.00037550 -0.00009001 -0.00011708  0.00056789

 TRANS. SAYVETZ    X  0.00000019  0.00000006 -0.00000001  0.00000029  0.00000004
                   Y -0.00000035  0.00000005  0.00000015 -0.00000041  0.00000004
                   Z -0.00000061  0.00000021 -0.00000002 -0.00000001 -0.00000004
               TOTAL  0.00000073  0.00000023  0.00000015  0.00000050  0.00000007

   ROT. SAYVETZ    X -0.00017509  0.00040341  0.00027540 -0.00028152 -0.00024359
                   Y -0.00011646  0.00038254 -0.00054986  0.00031624  0.00053939
                   Z  0.00008465 -0.00020466  0.00004267  0.00080024  0.00008536
               TOTAL  0.00022669  0.00059242  0.00061645  0.00090534  0.00059797

                           56          57          58          59          60
       FREQUENCY:      3737.21     3739.18     3739.68     3747.36     3768.80  
        SYMMETRY:         A           A           A           A           A   
    REDUCED MASS:      1.09734     1.11163     1.10746     1.10972     1.11042
    IR INTENSITY:      0.46292     0.07826     0.02902     0.00315     0.00907

  1   C            X -0.00549134 -0.00161438 -0.00022564 -0.00157821  0.00001046
                   Y  0.00094278 -0.00409848  0.00098558 -0.00110995 -0.00000700
                   Z -0.00566850 -0.00888998  0.00137943 -0.00476442 -0.00017847
  2   C            X  0.00218925  0.01262049 -0.00289975  0.00389449  0.00000550
                   Y -0.00886509 -0.03324199  0.00740985 -0.01365774 -0.00002816
                   Z -0.01859702 -0.07239598  0.01621190 -0.02946880 -0.00012579
  3   C            X  0.00241992  0.00650141 -0.00038565 -0.01736007 -0.00033657
                   Y  0.00679700  0.02077486 -0.00202588 -0.05128878 -0.00155236
                   Z  0.00940637  0.02412593 -0.00183661 -0.06554323 -0.00184242
  4   C            X -0.00006850 -0.00021085  0.00030255 -0.00026274  0.00005371
                   Y -0.00313042  0.00062374 -0.00124633  0.00002849  0.00062196
                   Z  0.00117134 -0.00062833 -0.00036827  0.00035234  0.00002940
  5   C            X  0.00661771 -0.01615977 -0.06903309 -0.00218627 -0.03561888
                   Y  0.00021497 -0.00190720 -0.00647480  0.00114779 -0.06503077
                   Z  0.00651424 -0.01231347 -0.05349864 -0.00350270  0.05385462
  6   C            X  0.04284368 -0.01072334  0.00709592  0.00178125 -0.00072169
                   Y  0.02399105 -0.00599050  0.00385017  0.00094379 -0.00010990
                   Z -0.06541006  0.01634728 -0.01054244 -0.00256346  0.00081044
  7   H            X -0.47502450  0.11677070 -0.07615874 -0.01931901  0.00535232
                   Y -0.25249091  0.06248759 -0.04048098 -0.01006431  0.00317041
                   Z  0.73424448 -0.18057982  0.11826669  0.02823418 -0.00852867
  8   H            X  0.00000300  0.00270377 -0.00054117  0.00101200  0.00013492
                   Y  0.02579528  0.06707081 -0.01251207  0.03016127  0.00066342
                   Z  0.02129619  0.05748094 -0.01070687  0.02557065  0.00060005
  9   H            X  0.03141700  0.02362700 -0.00189863  0.01573399  0.00009279
                   Y -0.02559096 -0.02159024  0.00212734 -0.01357291 -0.00017809
                   Z  0.05784006  0.05150159 -0.00547120  0.03229875  0.00066012
 10   H            X  0.07209883  0.26710203 -0.05974204  0.12106383  0.00075591
                   Y  0.06386494  0.23470306 -0.05225409  0.10035145  0.00048652
                   Z  0.10891667  0.40499395 -0.09055501  0.17903007  0.00102068
 11   H            X -0.10260121 -0.40850276  0.09184301 -0.16182363 -0.00046182
                   Y  0.03914026  0.15564894 -0.03502000  0.06302131  0.00023376
                   Z  0.11064299  0.44165493 -0.09922341  0.17462324  0.00053486
 12   H            X -0.01832797 -0.05259195  0.00499485  0.13023451  0.00369540
                   Y -0.07220868 -0.21215928  0.01882209  0.53541561  0.01473492
                   Z -0.01455367 -0.04185168  0.00339363  0.10651269  0.00284109
 13   H            X -0.01037781 -0.02657577  0.00174745  0.07949357  0.00244226
                   Y -0.01050154 -0.02767869  0.00249791  0.06929943  0.00198211
                   Z -0.09091110 -0.23724400  0.01688105  0.66550256  0.01653076
 14   H            X -0.00613020  0.01031324  0.04623121  0.00436074 -0.09655948
                   Y  0.03768773 -0.06578180 -0.29411454 -0.02551791  0.55848211
                   Z -0.02700183  0.04916504  0.22220687  0.01960708 -0.42900152
 15   H            X -0.03690865  0.10418889  0.44095322  0.00622362  0.55195824
                   Y -0.01548934  0.04330696  0.18413349  0.00324799  0.22763956
                   Z  0.01158927 -0.03194694 -0.13538617 -0.00197740 -0.16100698
 16   H            X -0.03591454  0.07619324  0.32529821  0.01431963 -0.03204518
                   Y -0.02209655  0.04632496  0.19733973  0.00916085 -0.02040285
                   Z -0.06168178  0.13036745  0.55578234  0.02499701 -0.04898141
 17   B            X  0.00009915  0.00002164  0.00002958 -0.00005950  0.00006012
                   Y -0.00059702  0.00011645  0.00009794  0.00006818 -0.00014976
                   Z  0.00070531 -0.00019658  0.00018925 -0.00012301 -0.00001896
 18   H            X  0.00468272  0.00072733  0.00237293 -0.00325599  0.00011475
                   Y  0.00132036 -0.00014110 -0.00096433 -0.00065963  0.00166208
                   Z  0.00609385 -0.00174521  0.00206749  0.00212246  0.00018931
 19   H            X  0.00023298 -0.00029258  0.00053592  0.00026326  0.00004528
                   Y -0.00056225  0.00035377 -0.00022064 -0.00014436  0.00006847
                   Z -0.00011866  0.00032586 -0.00015402  0.00008595 -0.00031004
 20   H            X -0.00184179  0.00024472 -0.00028129 -0.00058184 -0.00030330
                   Y  0.00010840  0.00003667 -0.00017415 -0.00016376  0.00020910
                   Z  0.00017952  0.00007143  0.00015364  0.00079100 -0.00001851

 TRANS. SAYVETZ    X -0.00000025 -0.00000002 -0.00000018  0.00000003  0.00000000
                   Y -0.00000022 -0.00000005 -0.00000003  0.00000001 -0.00000006
                   Z -0.00000010 -0.00000003  0.00000007  0.00000001 -0.00000003
               TOTAL  0.00000034  0.00000006  0.00000020  0.00000004  0.00000007

   ROT. SAYVETZ    X  0.00221009 -0.00053398  0.00025766 -0.00024969 -0.00016400
                   Y -0.00966165  0.00263384 -0.00145272 -0.00067606  0.00019147
                   Z -0.00052874  0.00050097  0.00030702 -0.00074040 -0.00002572
               TOTAL  0.00992529  0.00273372  0.00150699  0.00103324  0.00025341

 REFERENCE ON SAYVETZ CONDITIONS - A. SAYVETZ, J.CHEM.PHYS., 7, 383-389(1939).

 NOTE - THE MODES J,K ARE ORTHONORMALIZED ACCORDING TO
 SUM ON I   M(I) * (X(I,J)*X(I,K) + Y(I,J)*Y(I,K) + Z(I,J)*Z(I,K)) = DELTA(J,K)

  MODE FREQ(CM**-1)  SYMMETRY  RED. MASS  IR INTENS.
     1    1100.564    A        2.124233    3.724145
     2     537.511    A        1.221988    6.658176
     3       0.005    A        4.805562    0.000000
     4       0.003    A        4.805553    0.000000
     5       0.005    A        4.805535    0.000000
     6      41.761    A        3.044920    0.010345
     7      78.626    A        2.439754    0.000641
     8     123.293    A        2.136955    0.024128
     9     128.638    A        2.638015    0.046071
    10     241.310    A        1.195805    0.016844
    11     267.240    A        1.812993    0.016462
    12     329.036    A        2.615623    0.006986
    13     359.673    A        2.439282    0.074703
    14     428.884    A        3.085070    0.016271
    15     504.165    A        2.571805    0.256984
    16     676.737    A        2.542700    1.140162
    17     717.232    A        1.289519    0.001808
    18     748.345    A        1.731907    0.107939
    19     784.326    A        1.515687    0.365988
    20     903.827    A        1.288436    0.507515
    21     942.343    A        1.830658    0.035959
    22     989.915    A        2.019692    0.011463
    23    1038.560    A        1.388551    0.980843
    24    1049.617    A        1.408924    0.743648
    25    1092.967    A        2.075021    0.067959
    26    1125.878    A        1.790338    0.277270
    27    1186.300    A        1.394835    0.843187
    28    1217.767    A        1.304398    1.696782
    29    1249.826    A        1.460045    2.260316
    30    1265.519    A        1.240628    2.437145
    31    1301.089    A        1.127508    0.604041
    32    1308.822    A        1.428887    1.440961
    33    1322.114    A        1.231051    1.469117
    34    1359.317    A        1.340288    0.134390
    35    1405.140    A        1.495981    0.165213
    36    1475.557    A        1.241938    0.001256
    37    1486.928    A        1.264519    0.020785
    38    1509.118    A        1.559925    0.091559
    39    1604.221    A        2.003136    0.031992
    40    1616.282    A        1.807486    0.291459
    41    1634.016    A        1.595944    0.038162
    42    1710.789    A        1.309545    0.108725
    43    1754.699    A        3.183220    0.403864
    44    1806.327    A        1.103218    0.005453
    45    1808.883    A        1.049249    0.047056
    46    1812.111    A        1.085988    0.020887
    47    1821.632    A        1.101532    0.012886
    48    1838.045    A        1.120116    0.005467
    49    3182.921    A        1.036899    0.037408
    50    3404.478    A        1.151629    0.172955
    51    3565.901    A        1.039363    0.010166
    52    3608.924    A        1.066137    0.063341
    53    3619.614    A        1.067086    0.061675
    54    3629.355    A        1.068912    0.017171
    55    3720.740    A        1.111042    0.007120
    56    3737.213    A        1.097336    0.462923
    57    3739.183    A        1.111630    0.078260
    58    3739.677    A        1.107457    0.029022
    59    3747.365    A        1.109724    0.003148
    60    3768.798    A        1.110423    0.009071

     -------------------------------
     THERMOCHEMISTRY AT T=  298.15 K
     -------------------------------

 USING IDEAL GAS, RIGID ROTOR, HARMONIC NORMAL MODE APPROXIMATIONS.
 P=  1.01325E+05 PASCAL.
 ALL FREQUENCIES ARE SCALED BY   1.00000
 THE MOMENTS OF INERTIA ARE (IN AMU*BOHR**2)
            525.43692           767.52744           955.75212
 THE ROTATIONAL SYMMETRY NUMBER IS  1.0
 THE ROTATIONAL CONSTANTS ARE (IN GHZ)
      3.43160     2.34922     1.88656
   2 IMAGINARY FREQUENCY VIBRATION(S) IS(ARE) EXCLUDED
     FROM THE FOLLOWING THERMOCHEMICAL ANALYSIS.
      9 -     60 VIBRATIONAL MODES ARE USED IN THERMOCHEMISTRY.
 THE HARMONIC ZERO POINT ENERGY IS (SCALED BY   1.000)
        0.203412 HARTREE/MOLECULE    44643.684154 CM**-1/MOLECULE 
      127.642826 KCAL/MOL              534.057585 KJ/MOL

               Q               LN Q
 ELEC.     1.00000E+00       0.000000
 TRANS.    3.70351E+07      17.427377
 ROT.      2.22240E+05      12.311511
 VIB.      1.01323E+01       2.315733
 TOT.      8.33960E+13      32.054621

              E         H         G         CV        CP        S
           KJ/MOL    KJ/MOL    KJ/MOL   J/MOL-K   J/MOL-K   J/MOL-K
 ELEC.      0.000     0.000     0.000     0.000     0.000     0.000
 TRANS.     3.718     6.197   -43.201    12.472    20.786   165.684
 ROT.       3.718     3.718   -30.520    12.472    12.472   114.835
 VIB.     543.715   543.715   528.317    78.849    78.849    51.645
 TOTAL    551.152   553.631   454.596   103.792   112.107   332.164
 VIB. THERMAL CORRECTION E(T)-E(0) = H(T)-H(0) =      9657.309 J/MOL

              E         H         G         CV        CP        S
         KCAL/MOL  KCAL/MOL  KCAL/MOL CAL/MOL-K CAL/MOL-K CAL/MOL-K
 ELEC.      0.000     0.000     0.000     0.000     0.000     0.000
 TRANS.     0.889     1.481   -10.325     2.981     4.968    39.600
 ROT.       0.889     0.889    -7.294     2.981     2.981    27.446
 VIB.     129.951   129.951   126.271    18.845    18.845    12.343
 TOTAL    131.728   132.321   108.651    24.807    26.794    79.389
 VIB. THERMAL CORRECTION E(T)-E(0) = H(T)-H(0) =      2308.152 CAL/MOL

     *******************************************************
     * THIS IS NOT A STATIONARY POINT ON THE MOLECULAR PES *
     *     THE VIBRATIONAL ANALYSIS IS NOT VALID !!!       *
     *******************************************************
 ......END OF NORMAL COORDINATE ANALYSIS......
 STEP CPU TIME =     0.02 TOTAL CPU TIME =        132.5 (      2.2 MIN)
 TOTAL WALL CLOCK TIME=        133.9 SECONDS, CPU UTILIZATION IS    99.01%
               580000  WORDS OF DYNAMIC MEMORY USED
 EXECUTION OF GAMESS TERMINATED NORMALLY Sat Nov 13 14:30:11 2021
 DDI: 263640 bytes (0.3 MB / 0 MWords) used by master data server.

 ----------------------------------------
 CPU timing information for all processes
 ========================================
 0: 129.962 + 2.587 = 132.550
 ----------------------------------------
 ddikick.x: exited gracefully.
----- accounting info -----
Files used on the master node chemcompute-node-0.novalocal were:
-rw-r--r--. 1 chemcomp chemcomp     1369 Nov 13 14:27 /scratch/305958/341858.F05
-rw-rw-r--. 1 chemcomp chemcomp  8100720 Nov 13 14:29 /scratch/305958/341858.F08
-rw-rw-r--. 1 chemcomp chemcomp 85196800 Nov 13 14:30 /scratch/305958/341858.F10
-rw-rw-r--. 1 chemcomp chemcomp   564960 Nov 13 14:30 /scratch/305958/341858.F18
Sat Nov 13 14:30:14 UTC 2021
0.133u 0.102s 2:17.45 0.1%	0+0k 8+216io 0pf+0w
Finishing Up...
Looking for IR data...
Looking for Raman data...
vibramans not found
Looking for thermodynamics data...
Looking for UV-Vis data...
305958
