----- GAMESS execution script 'rungms' -----
This job is running on host chemcompute-node-0.novalocal
under operating system Linux at Sat Nov 6 22:08:33 UTC 2021
SLURM has assigned the following compute nodes to this run:
chemcompute-node-0
Available scratch disk space (Kbyte units) at beginning of the job is
Filesystem     1K-blocks     Used Available Use% Mounted on
/dev/sda1       62903276 16755224  46148052  27% /
GAMESS temporary binary files will be written to /scratch/301851
GAMESS supplementary output files will be written to /data/slurm/336895
Copying input file 336895.inp to your run's scratch directory...
The generated host list is
chemcompute-node-0.novalocal

 Distributed Data Interface kickoff program.
 Initiating 1 compute processes on 1 nodes to run the following command:
 /data/gamess-2019R1-ddi/gamess.00.x 336895 

          ******************************************************
          *         GAMESS VERSION = 30 JUN 2019 (R1)          *
          *             FROM IOWA STATE UNIVERSITY             *
          * M.W.SCHMIDT, K.K.BALDRIDGE, J.A.BOATZ, S.T.ELBERT, *
          *   M.S.GORDON, J.H.JENSEN, S.KOSEKI, N.MATSUNAGA,   *
          *          K.A.NGUYEN, S.J.SU, T.L.WINDUS,           *
          *       TOGETHER WITH M.DUPUIS, J.A.MONTGOMERY       *
          *         J.COMPUT.CHEM.  14, 1347-1363(1993)        *
          **************** 64 BIT LINUX VERSION ****************

  SINCE 1993, STUDENTS AND POSTDOCS WORKING AT IOWA STATE UNIVERSITY
  AND ALSO IN THEIR VARIOUS JOBS AFTER LEAVING ISU HAVE MADE IMPORTANT
  CONTRIBUTIONS TO THE CODE:
     IVANA ADAMOVIC, CHRISTINE AIKENS, YURI ALEXEEV, POOJA ARORA,
     ANDREY ASADCHEV, ROB BELL, PRADIPTA BANDYOPADHYAY, JONATHAN BENTZ,
     COLLEEN BERTONI, BRETT BODE, KURT BRORSEN, CALEB CARLIN, GALINA CHABAN,
     WEI CHEN, CHEOL HO CHOI, PAUL DAY, ALBERT DEFUSCO, NUWAN DESILVA,
     TIM DUDLEY, DMITRI FEDOROV, ALEX FINDLATER, GRAHAM FLETCHER, 
     MARK FREITAG, KURT GLAESEMANN, ANASTASIA GUNINA,
     DAN KEMP, GRANT MERRILL, NORIYUKI MINEZAWA, JONATHAN MULLIN,
     TAKESHI NAGATA, SEAN NEDD, HEATHER NETZLOFF, BOSILJKA NJEGIC, RYAN OLSON,
     MIKE PAK, BUU PHAM,
     SPENCER PRUITT, LUKE ROSKOP, JIM SHOEMAKER, LYUDMILA SLIPCHENKO,
     TONY SMITH, SAROM SOK LEANG, JIE SONG, TETSUYA TAKETSUGU, SIMON WEBB,
     PENG XU, SOOHAENG YOO, FEDERICO ZAHARIEV

  ADDITIONAL CODE HAS BEEN PROVIDED BY COLLABORATORS IN OTHER GROUPS:
     IOWA STATE UNIVERSITY:
          JOE IVANIC, AARON WEST, LAIMUTIS BYTAUTAS, KLAUS RUEDENBERG
     UNIVERSITY OF TOKYO: KIMIHIKO HIRAO, TAKAHITO NAKAJIMA,
          TAKAO TSUNEDA, MUNEAKI KAMIYA, SUSUMU YANAGISAWA,
          KIYOSHI YAGI, MAHITO CHIBA, SEIKEN TOKURA, NAOAKI KAWAKAMI
     UNIVERSITY OF AARHUS: FRANK JENSEN
     UNIVERSITY OF IOWA: VISVALDAS KAIRYS, HUI LI
     NATIONAL INST. OF STANDARDS AND TECHNOLOGY: WALT STEVENS, DAVID GARMER
     UNIVERSITY OF PISA: BENEDETTA MENNUCCI, JACOPO TOMASI
     UNIVERSITY OF MEMPHIS: HENRY KURTZ, PRAKASHAN KORAMBATH
     UNIVERSITY OF ALBERTA: TOBY ZENG, MARIUSZ KLOBUKOWSKI
     UNIVERSITY OF NEW ENGLAND: MARK SPACKMAN
     MIE UNIVERSITY: HIROAKI UMEDA
     NAT. INST. OF ADVANCED INDUSTRIAL SCIENCE AND TECHNOLOGY: KAZUO KITAURA
     MICHIGAN STATE UNIVERSITY:
          KAROL KOWALSKI, MARTA WLOCH, JEFFREY GOUR, JESSE LUTZ,
          WEI LI, JUN SHEN, J. EMILIANO DEUSTUA, PIOTR PIECUCH
     UNIVERSITY OF MINNESOTA:
          YINAN SHU
     UNIVERSITY OF SILESIA: MONIKA MUSIAL, STANISLAW KUCHARSKI
     FACULTES UNIVERSITAIRES NOTRE-DAME DE LA PAIX:
          OLIVIER QUINET, BENOIT CHAMPAGNE
     UNIVERSITY OF CALIFORNIA - SANTA BARBARA: BERNARD KIRTMAN
     INSTITUTE FOR MOLECULAR SCIENCE:
          KAZUYA ISHIMURA, MICHIO KATOUDA, AND SHIGERU NAGASE
     UNIVERSITY OF NOTRE DAME: ANNA POMOGAEVA, DAN CHIPMAN
     KYUSHU UNIVERSITY:
          HARUYUKI NAKANO,
          FENG LONG GU, JACEK KORCHOWIEC, MARCIN MAKOWSKI, AND YURIKO AOKI,
          HIROTOSHI MORI AND EISAKU MIYOSHI
     PENNSYLVANIA STATE UNIVERSITY:
          TZVETELIN IORDANOV, CHET SWALINA, JONATHAN SKONE,
          SHARON HAMMES-SCHIFFER
     WASEDA UNIVERSITY:
          MASATO KOBAYASHI, TOMOKO AKAMA, TSUGUKI TOUMA,
          TAKESHI YOSHIKAWA, YASUHIRO IKABATA, JUNJI SEINO,
          YUYA NAKAJIMA, HIROMI NAKAI
     NANJING UNIVERSITY: SHUHUA LI
     UNIVERSITY OF NEBRASKA:
          PEIFENG SU, DEJUN SI, NANDUN THELLAMUREGE, YALI WANG, HUI LI
     UNIVERSITY OF ZURICH: ROBERTO PEVERATI, KIM BALDRIDGE
     N. COPERNICUS UNIVERSITY AND JACKSON STATE UNIVERSITY:
          MARIA BARYSZ
     UNIVERSITY OF COPENHAGEN: Jimmy Kromann, CASPER STEINMANN
     TOKYO INSTITUTE OF TECHNOLOGY: HIROYA NAKATA
     NAGOYA UNIVERSITY: YOSHIO NISHIMOTO, STEPHAN IRLE
     MOSCOW STATE UNIVERSITY: VLADIMIR MIRONOV
     A.N.NESMEYANOV INSTITUTE OF ORGANOELEMENT COMPOUNDS OF RUSSIAN ACADEMY OF SCIENCES:
          IGOR S. GERASIMOV

 EXECUTION OF GAMESS BEGUN Sat Nov  6 22:08:34 2021

            ECHO OF THE FIRST FEW INPUT CARDS -
 INPUT CARD>!File created by the GAMESS Input Deck Generator Plugin for Avogadro            
 INPUT CARD> $BASIS GBASIS=STO NGAUSS=3 $END                                                
 INPUT CARD> $CONTRL SCFTYP=RHF RUNTYP=IRC NZVAR=1 mult=1  ICHARG=0 $END                    
 INPUT CARD> $STATPT hssend=.t. OPTTOL=0.0005 NSTEP=50 $END                                 
 INPUT CARD> $STATPT HESS=calc ihrep=5 $END                                                 
 INPUT CARD> $FORCE nvib=2 $END                                                             
 INPUT CARD> $ZMAT DLC=.t. auto=.t. nonvdw(1)=3,10,7,8,7,2,3,2,8,9,9,10 $END                
 INPUT CARD>!$ZMAT IFZMAT(1)=1,3,10,1,7,8 fvalue(1)=2.00,2.00 $END                          
 INPUT CARD> $irc npoint=100 saddle=.t. tsengy=.t. forwrd=.t. opttol=0.0005 stride=0.2 $end 
 INPUT CARD>                                                                                
 INPUT CARD> $DATA                                                                          
 INPUT CARD>Title                                                                           
 INPUT CARD>C1                                                                              
 INPUT CARD>C     6.0     0.80813515     0.79626429     0.65297842                          
 INPUT CARD>C     6.0    -1.47480702     0.35297456    -0.17498767                          
 INPUT CARD>C     6.0    -0.65855539     1.12289000     0.66729814                          
 INPUT CARD>C     6.0     0.30885509    -1.40683138    -0.33704117                          
 INPUT CARD>O     8.0     0.68569440    -2.49688196    -0.74867648                          
 INPUT CARD>H     1.0    -1.79791009    -1.61294472    -0.95249146                          
 INPUT CARD>C     6.0    -1.16932321    -1.00362337    -0.30968446                          
 INPUT CARD>C     6.0    -1.70657897    -1.70544052     1.48441947                          
 INPUT CARD>C     6.0    -0.98321974    -0.91920125     2.38655186                          
 INPUT CARD>C     6.0    -1.23003924     0.45575812     2.46405673                          
 INPUT CARD>H     1.0    -0.62566900     1.04849482     3.14271379                          
 INPUT CARD>H     1.0    -2.25633717     0.79998481     2.40444946                          
 INPUT CARD>H     1.0    -0.02661945    -1.28743351     2.73226190                          
 INPUT CARD>H     1.0    -2.76688051    -1.51119983     1.36677408                          
 INPUT CARD>H     1.0    -1.45860064    -2.75892138     1.40369499                          
 INPUT CARD>C     6.0     1.25511861    -0.35454631     0.19093184                          
 INPUT CARD>H     1.0     2.31074524    -0.59034258     0.15694313                          
 INPUT CARD>H     1.0     1.48653960     1.54819226     1.04060018                          
 INPUT CARD>H     1.0    -2.46726823     0.70487845    -0.42462295                          
 INPUT CARD>H     1.0    -0.88857341     2.17864180     0.77327842                          
 INPUT CARD> $END                                                                           
 INPUT CARD>                                                                                
 INPUT CARD> $HESS                                                                          
 INPUT CARD>ENERGY IS     -416.1191946428 E(NUC) IS      517.4269103666                     
 INPUT CARD> 1  1 8.04716617E-01-5.36259788E-02 2.98297369E-03-3.45815479E-02-6.63802814E-03
 INPUT CARD> 1  2-9.64299554E-04-3.02669118E-01 4.99589660E-02-1.66877728E-02 3.75748915E-02
 INPUT CARD> 1  3-8.65250087E-03-1.34847739E-03-8.04944671E-03-1.24908790E-02-5.09221524E-03
 INPUT CARD> 1  4-1.01244341E-03 1.01852442E-03 4.60283447E-04 9.24687936E-04 3.53910101E-03
 INPUT CARD> 1  5-4.41449078E-03-1.62463220E-03 2.29177901E-03-2.59690421E-03 3.27494648E-04
 INPUT CARD> 1  6 7.29823771E-03 3.76022219E-03-1.53316092E-02-1.25674736E-02 2.38791091E-02
 INPUT CARD> 1  7 7.88801144E-04 4.90062451E-04-1.31612122E-03 1.48047918E-04 5.41839672E-04
 INPUT CARD> 1  8-1.63452717E-03-3.42376747E-04 4.86767461E-05-3.43508556E-04-5.03914153E-04
 INPUT CARD> 1  9-4.09715538E-05 1.60712073E-04 7.03732385E-04-5.87181641E-05-1.08669169E-03
 INPUT CARD> 1 10-2.39711876E-01 1.65244304E-01 6.92469284E-02-3.16599429E-03 3.89378417E-02
 INPUT CARD> 1 11 1.49325583E-02-2.32588741E-01-1.69922543E-01-8.26076892E-02-7.52154642E-04
 INPUT CARD> 1 12-1.01371953E-04-5.47880353E-04-4.85041889E-03-5.27086752E-03 3.21779107E-03
 INPUT CARD> 2  1-5.36259788E-02 1.03762447E+00 3.67665839E-01-1.37388512E-02 2.01775443E-02
    1000000 WORDS OF MEMORY AVAILABLE

     BASIS OPTIONS
     -------------
     GBASIS=STO          IGAUSS=       3      POLAR=NONE    
     NDFUNC=       0     NFFUNC=       0     DIFFSP=       F
     NPFUNC=       0      DIFFS=       F     BASNAM=        


     RUN TITLE
     ---------
 Title                                                                           

 THE POINT GROUP OF THE MOLECULE IS C1      
 THE ORDER OF THE PRINCIPAL AXIS IS     0

 ATOM      ATOMIC                      COORDINATES (BOHR)
           CHARGE         X                   Y                   Z
 C           6.0     1.5271539945        1.5047213219        1.2339502897
 C           6.0    -2.7869811526        0.6670251990       -0.3306787475
 C           6.0    -1.2444892348        2.1219544144        1.2610106367
 C           6.0     0.5836514900       -2.6585258191       -0.6369154579
 O           8.0     1.2957745273       -4.7184227281       -1.4147934007
 H           1.0    -3.3975574207       -3.0480235541       -1.7999478650
 C           6.0    -2.2097004580       -1.8965731642       -0.5852187721
 C           6.0    -3.2249666297       -3.2228152712        2.8051460491
 C           6.0    -1.8580158943       -1.7370384901        4.5099290709
 C           6.0    -2.3244371177        0.8612579635        4.6563920379
 H           1.0    -1.1823429690        1.9813679093        5.9388679209
 H           1.0    -4.2638589872        1.5117520852        4.5437506307
 H           1.0    -0.0503034664       -2.4328965613        5.1632263177
 H           1.0    -5.2286460047       -2.8557535914        2.5828284983
 H           1.0    -2.7563555351       -5.2136054299        2.6525989014
 C           6.0     2.3718302550       -0.6699953759        0.3608088599
 H           1.0     4.3666753310       -1.1155857151        0.2965795114
 H           1.0     2.8091525139        2.9256591477        1.9664492030
 H           1.0    -4.6624608929        1.3320271252       -0.8024210236
 H           1.0    -1.6791602649        4.1170360274        1.4612843260

          INTERNUCLEAR DISTANCES (ANGS.)
          ------------------------------

                1 C          2 C          3 C          4 C          5 O     

   1 C       0.0000000    2.4685742 *  1.5026878 *  2.4663840 *  3.5811228  
   2 C       2.4685742 *  0.0000000    1.4030260 *  2.5109020 *  3.6219563  
   3 C       1.5026878 *  1.4030260 *  0.0000000    2.8886105 *  4.1127534  
   4 C       2.4663840 *  2.5109020 *  2.8886105 *  0.0000000    1.2246068 *
   5 O       3.5811228    3.6219563    4.1127534    1.2246068 *  0.0000000  
   6 H       3.8952912    2.1386319 *  3.3773716    2.2044776 *  2.6440834 *
   7 C       2.8419460 *  1.3970761 *  2.3952949 *  1.5324282 *  2.4214924 *
   8 C       3.6432963    2.6541332 *  3.1249791    2.7329216 *  3.3669079  
   9 C       3.0260620    2.9019948 *  2.6891220 *  3.0537190    3.8863875  
  10 C       2.7477452 *  2.6523633 *  2.0000000 *  3.6991330    4.7654773  
  11 H       2.8841284 *  3.4945567    2.4767517 *  4.3601212    5.4251533  
  12 H       3.5296820    2.7320511 *  2.3821984 *  4.3549994    5.4283592  
  13 H       3.0597437    3.6387204    3.2362135    3.0898900    3.7532770  
  14 H       4.3144677    2.7425589 *  3.4456829    3.5176738    4.1673701  
  15 H       4.2826407    3.4894696    4.0312296    2.8252804 *  3.0494866  
  16 C       1.3181981 *  2.8437610 *  2.4641208 *  1.5104549 *  2.4076357 *
  17 H       2.1039408 *  3.9154095    3.4658872    2.2177102 *  2.6637998 *
  18 H       1.0843795 *  3.4169830    2.2184835 *  3.4665547    4.4950517  
  19 H       3.4493251    1.0821892 *  2.1537102 *  3.4891044    4.5052696  
  20 H       2.1918621 *  2.1391445 *  1.0857034 *  3.9398303    5.1628663  

                6 H          7 C          8 C          9 C         10 C     

   1 C       3.8952912    2.8419460 *  3.6432963    3.0260620    2.7477452 *
   2 C       2.1386319 *  1.3970761 *  2.6541332 *  2.9019948 *  2.6523633 *
   3 C       3.3773716    2.3952949 *  3.1249791    2.6891220 *  2.0000000 *
   4 C       2.2044776 *  1.5324282 *  2.7329216 *  3.0537190    3.6991330  
   5 O       2.6440834 *  2.4214924 *  3.3669079    3.8863875    4.7654773  
   6 H       0.0000000    1.0860915 *  2.4403753 *  3.5063101    4.0342050  
   7 C       1.0860915 *  0.0000000    2.0000000 *  2.7039697 *  3.1348239  
   8 C       2.4403753 *  2.0000000 *  0.0000000    1.3983074 *  2.4202394 *
   9 C       3.5063101    2.7039697 *  1.3983074 *  0.0000000    1.3990855 *
  10 C       4.0342050    3.1348239    2.4202394 *  1.3990855 *  0.0000000  
  11 H       5.0227598    4.0528758    3.3915286    2.1380952 *  1.0849772 *
  12 H       4.1594996    3.4352765    2.7250404 *  2.1393338 *  1.0841275 *
  13 H       4.1013212    3.2618642    2.1340348 *  1.0817553 *  2.1351511 *
  14 H       2.5156010 *  2.3707249 *  1.0843474 *  2.1381896 *  2.7266892 *
  15 H       2.6419705 *  2.4699032 *  1.0852795 *  2.1392907 *  3.3927528  
  16 C       3.4945626    2.5592647 *  3.5028100    3.1858658    3.4640583  
  17 H       4.3769406    3.5354517    4.3754463    3.9911788    4.3536484  
  18 H       4.9752197    3.9228356    4.5802956    3.7415676    3.2556783  
  19 H       2.4696133 *  2.1486858 *  3.1674483    3.5696973    3.1523431  
  20 H       4.2639539    3.3731944    4.0324868    3.4940293    2.4379619 *

               11 H         12 H         13 H         14 H         15 H     

   1 C       2.8841284 *  3.5296820    3.0597437    4.3144677    4.2826407  
   2 C       3.4945567    2.7320511 *  3.6387204    2.7425589 *  3.4894696  
   3 C       2.4767517 *  2.3821984 *  3.2362135    3.4456829    4.0312296  
   4 C       4.3601212    4.3549994    3.0898900    3.5176738    2.8252804 *
   5 O       5.4251533    5.4283592    3.7532770    4.1673701    3.0494866  
   6 H       5.0227598    4.1594996    4.1013212    2.5156010 *  2.6419705 *
   7 C       4.0528758    3.4352765    3.2618642    2.3707249 *  2.4699032 *
   8 C       3.3915286    2.7250404 *  2.1340348 *  1.0843474 *  1.0852795 *
   9 C       2.1380952 *  2.1393338 *  1.0817553 *  2.1381896 *  2.1392907 *
  10 C       1.0849772 *  1.0841275 *  2.1351511 *  2.7266892 *  3.3927528  
  11 H       0.0000000    1.8071719 *  2.4461996 *  3.7803155    4.2678308  
  12 H       1.8071719 *  0.0000000    3.0718752    2.5843760 *  3.7820241  
  13 H       2.4461996 *  3.0718752    0.0000000    3.0697979    2.4455954 *
  14 H       3.7803155    2.5843760 *  3.0697979    0.0000000    1.8082501 *
  15 H       4.2678308    3.7820241    2.4455954 *  1.8082501 *  0.0000000  
  16 C       3.7707961    4.3084712    2.9952445 *  4.3470598    3.8230990  
  17 H       4.4970149    5.2766028    3.5470377    5.3003728    4.5238360  
  18 H       3.0215897    4.0532735    3.6320990    5.2495573    5.2303840  
  19 H       4.0293239    2.8385186 *  4.4600443    2.8652877 *  4.0445106  
  20 H       2.6382901 *  2.5361766 *  4.0736052    4.1827271    5.0101783  

               16 C         17 H         18 H         19 H         20 H     

   1 C       1.3181981 *  2.1039408 *  1.0843795 *  3.4493251    2.1918621 *
   2 C       2.8437610 *  3.9154095    3.4169830    1.0821892 *  2.1391445 *
   3 C       2.4641208 *  3.4658872    2.2184835 *  2.1537102 *  1.0857034 *
   4 C       1.5104549 *  2.2177102 *  3.4665547    3.4891044    3.9398303  
   5 O       2.4076357 *  2.6637998 *  4.4950517    4.5052696    5.1628663  
   6 H       3.4945626    4.3769406    4.9752197    2.4696133 *  4.2639539  
   7 C       2.5592647 *  3.5354517    3.9228356    2.1486858 *  3.3731944  
   8 C       3.5028100    4.3754463    4.5802956    3.1674483    4.0324868  
   9 C       3.1858658    3.9911788    3.7415676    3.5696973    3.4940293  
  10 C       3.4640583    4.3536484    3.2556783    3.1523431    2.4379619 *
  11 H       3.7707961    4.4970149    3.0215897    4.0293239    2.6382901 *
  12 H       4.3084712    5.2766028    4.0532735    2.8385186 *  2.5361766 *
  13 H       2.9952445 *  3.5470377    3.6320990    4.4600443    4.0736052  
  14 H       4.3470598    5.3003728    5.2495573    2.8652877 *  4.1827271  
  15 H       3.8230990    4.5238360    5.2303840    4.0445106    5.0101783  
  16 C       0.0000000    1.0821750 *  2.0966416 *  3.9188585    3.3692113  
  17 H       1.0821750 *  0.0000000    2.4563176 *  4.9844989    4.2758372  
  18 H       2.0966416 *  2.4563176 *  0.0000000    4.3000760    2.4718595 *
  19 H       3.9188585    4.9844989    4.3000760    0.0000000    2.4696606 *
  20 H       3.3692113    4.2758372    2.4718595 *  2.4696606 *  0.0000000  

  * ... LESS THAN  3.000


     ATOMIC BASIS SET
     ----------------
 THE CONTRACTED PRIMITIVE FUNCTIONS HAVE BEEN UNNORMALIZED
 THE CONTRACTED BASIS FUNCTIONS ARE NOW NORMALIZED TO UNITY

  SHELL TYPE  PRIMITIVE        EXPONENT          CONTRACTION COEFFICIENT(S)

 C         

      1   S       1            71.6168373    0.154328967295
      1   S       2            13.0450963    0.535328142282
      1   S       3             3.5305122    0.444634542185

      2   L       4             2.9412494   -0.099967229187    0.155916274999
      2   L       5             0.6834831    0.399512826089    0.607683718598
      2   L       6             0.2222899    0.700115468880    0.391957393099

 C         

      3   S       7            71.6168373    0.154328967295
      3   S       8            13.0450963    0.535328142282
      3   S       9             3.5305122    0.444634542185

      4   L      10             2.9412494   -0.099967229187    0.155916274999
      4   L      11             0.6834831    0.399512826089    0.607683718598
      4   L      12             0.2222899    0.700115468880    0.391957393099

 C         

      5   S      13            71.6168373    0.154328967295
      5   S      14            13.0450963    0.535328142282
      5   S      15             3.5305122    0.444634542185

      6   L      16             2.9412494   -0.099967229187    0.155916274999
      6   L      17             0.6834831    0.399512826089    0.607683718598
      6   L      18             0.2222899    0.700115468880    0.391957393099

 C         

      7   S      19            71.6168373    0.154328967295
      7   S      20            13.0450963    0.535328142282
      7   S      21             3.5305122    0.444634542185

      8   L      22             2.9412494   -0.099967229187    0.155916274999
      8   L      23             0.6834831    0.399512826089    0.607683718598
      8   L      24             0.2222899    0.700115468880    0.391957393099

 O         

      9   S      25           130.7093214    0.154328967295
      9   S      26            23.8088661    0.535328142282
      9   S      27             6.4436083    0.444634542185

     10   L      28             5.0331513   -0.099967229187    0.155916274999
     10   L      29             1.1695961    0.399512826089    0.607683718598
     10   L      30             0.3803890    0.700115468880    0.391957393099

 H         

     11   S      31             3.4252509    0.154328967295
     11   S      32             0.6239137    0.535328142282
     11   S      33             0.1688554    0.444634542185

 C         

     12   S      34            71.6168373    0.154328967295
     12   S      35            13.0450963    0.535328142282
     12   S      36             3.5305122    0.444634542185

     13   L      37             2.9412494   -0.099967229187    0.155916274999
     13   L      38             0.6834831    0.399512826089    0.607683718598
     13   L      39             0.2222899    0.700115468880    0.391957393099

 C         

     14   S      40            71.6168373    0.154328967295
     14   S      41            13.0450963    0.535328142282
     14   S      42             3.5305122    0.444634542185

     15   L      43             2.9412494   -0.099967229187    0.155916274999
     15   L      44             0.6834831    0.399512826089    0.607683718598
     15   L      45             0.2222899    0.700115468880    0.391957393099

 C         

     16   S      46            71.6168373    0.154328967295
     16   S      47            13.0450963    0.535328142282
     16   S      48             3.5305122    0.444634542185

     17   L      49             2.9412494   -0.099967229187    0.155916274999
     17   L      50             0.6834831    0.399512826089    0.607683718598
     17   L      51             0.2222899    0.700115468880    0.391957393099

 C         

     18   S      52            71.6168373    0.154328967295
     18   S      53            13.0450963    0.535328142282
     18   S      54             3.5305122    0.444634542185

     19   L      55             2.9412494   -0.099967229187    0.155916274999
     19   L      56             0.6834831    0.399512826089    0.607683718598
     19   L      57             0.2222899    0.700115468880    0.391957393099

 H         

     20   S      58             3.4252509    0.154328967295
     20   S      59             0.6239137    0.535328142282
     20   S      60             0.1688554    0.444634542185

 H         

     21   S      61             3.4252509    0.154328967295
     21   S      62             0.6239137    0.535328142282
     21   S      63             0.1688554    0.444634542185

 H         

     22   S      64             3.4252509    0.154328967295
     22   S      65             0.6239137    0.535328142282
     22   S      66             0.1688554    0.444634542185

 H         

     23   S      67             3.4252509    0.154328967295
     23   S      68             0.6239137    0.535328142282
     23   S      69             0.1688554    0.444634542185

 H         

     24   S      70             3.4252509    0.154328967295
     24   S      71             0.6239137    0.535328142282
     24   S      72             0.1688554    0.444634542185

 C         

     25   S      73            71.6168373    0.154328967295
     25   S      74            13.0450963    0.535328142282
     25   S      75             3.5305122    0.444634542185

     26   L      76             2.9412494   -0.099967229187    0.155916274999
     26   L      77             0.6834831    0.399512826089    0.607683718598
     26   L      78             0.2222899    0.700115468880    0.391957393099

 H         

     27   S      79             3.4252509    0.154328967295
     27   S      80             0.6239137    0.535328142282
     27   S      81             0.1688554    0.444634542185

 H         

     28   S      82             3.4252509    0.154328967295
     28   S      83             0.6239137    0.535328142282
     28   S      84             0.1688554    0.444634542185

 H         

     29   S      85             3.4252509    0.154328967295
     29   S      86             0.6239137    0.535328142282
     29   S      87             0.1688554    0.444634542185

 H         

     30   S      88             3.4252509    0.154328967295
     30   S      89             0.6239137    0.535328142282
     30   S      90             0.1688554    0.444634542185

 TOTAL NUMBER OF BASIS SET SHELLS             =   30
 NUMBER OF CARTESIAN GAUSSIAN BASIS FUNCTIONS =   60
 NUMBER OF ELECTRONS                          =   72
 CHARGE OF MOLECULE                           =    0
 SPIN MULTIPLICITY                            =    1
 NUMBER OF OCCUPIED ORBITALS (ALPHA)          =   36
 NUMBER OF OCCUPIED ORBITALS (BETA )          =   36
 TOTAL NUMBER OF ATOMS                        =   20
 THE NUCLEAR REPULSION ENERGY IS      513.0666308076

     $CONTRL OPTIONS
     ---------------
 SCFTYP=RHF          RUNTYP=IRC          EXETYP=RUN     
 MPLEVL=       0     CITYP =NONE         CCTYP =NONE         VBTYP =NONE    
 DFTTYP=NONE         TDDFT =NONE    
 MULT  =       1     ICHARG=       0     NZVAR =       1     COORD =UNIQUE  
 PP    =NONE         RELWFN=NONE         LOCAL =NONE         NUMGRD=       F
 ISPHER=      -1     NOSYM =       0     MAXIT =      30     UNITS =ANGS    
 PLTORB=       F     MOLPLT=       F     AIMPAC=       F     FRIEND=        
 NPRINT=       7     IREST =       0     GEOM  =INPUT   
 NORMF =       0     NORMP =       0     ITOL  =      20     ICUT  =       9
 INTTYP=BEST         GRDTYP=BEST         QMTTOL= 1.0E-06

     $SYSTEM OPTIONS
     ---------------
  REPLICATED MEMORY=     1000000 WORDS (ON EVERY NODE).
 DISTRIBUTED MEMDDI=           0 MILLION WORDS IN AGGREGATE,
 MEMDDI DISTRIBUTED OVER   1 PROCESSORS IS           0 WORDS/PROCESSOR.
 TOTAL MEMORY REQUESTED ON EACH PROCESSOR=     1000000 WORDS.
 TIMLIM=      525600.00 MINUTES, OR     365.0 DAYS.
 PARALL= F  BALTYP=  DLB     KDIAG=    0  COREFL= F
 MXSEQ2=     300 MXSEQ3=     150  mem10=         0

          ----------------
          PROPERTIES INPUT
          ----------------

     MOMENTS            FIELD           POTENTIAL          DENSITY
 IEMOM =       1   IEFLD =       0   IEPOT =       0   IEDEN =       0
 WHERE =COMASS     WHERE =NUCLEI     WHERE =NUCLEI     WHERE =NUCLEI  
 OUTPUT=BOTH       OUTPUT=BOTH       OUTPUT=BOTH       OUTPUT=BOTH    
 IEMINT=       0   IEFINT=       0                     IEDINT=       0
                                                       MORB  =       0
          EXTRAPOLATION IN EFFECT
          SOSCF IN EFFECT
 ORBITAL PRINTING OPTION: NPREO=     1    60     2     1

     -------------------------------
     INTEGRAL TRANSFORMATION OPTIONS
     -------------------------------
     NWORD  =            0
     CUTOFF = 1.0E-09     MPTRAN =       0
     DIRTRF =       F     AOINTS =DUP     

          ----------------------
          INTEGRAL INPUT OPTIONS
          ----------------------
 NOPK  =       1 NORDER=       0 SCHWRZ=       T


 -----------------------------------------------
  STATISTICS ON AUTOMATIC COORDINATE GENERATION 
 -----------------------------------------------
  NUMBER OF USER SPECIFIED BONDS                             6
  NUMBER OF BONDS                                           25
  NUMBER OF ANGLES                                          61
  NUMBER OF TORSIONS                                        62
  NUMBER OF EXTRA COORD.                                     0
  NUMBER OF EXTRA COORD. FOR CONSTRAINTS                     0
  NUMBER OF CONSTRAINED COORD.                               0

  TOTAL NUMBER OF PRIMITIVES                               148
 -----------------------------------------------

   --- ENCODED Z MATRIX ---
 COORD  TYPE   I   J   K   L   M   N
    1      1    1  16
    2      1    1  18
    3      1    1   3
    4      1    2   3
    5      1    2   3
    6      1    2  19
    7      1    2   7
    8      1    2   7
    9      1    3  10
   10      1    3  20
   11      1    4  16
   12      1    4   5
   13      1    4   7
   14      1    6   7
   15      1    7   8
   16      1    8   9
   17      1    8  15
   18      1    8  14
   19      1    8   9
   20      1    9  10
   21      1    9  13
   22      1    9  10
   23      1   10  12
   24      1   10  11
   25      1   16  17
   26      2    1  16  17
   27      2    1   3   2
   28      2    1   3   2
   29      2    1   3  10
   30      2    1   3  20
   31      2    1  16   4
   32      2    2   7   6
   33      2    2   3  10
   34      2    2   3  10
   35      2    2   7   4
   36      2    2   3  20
   37      2    2   7   8
   38      2    2   7   4
   39      2    2   3  20
   40      2    2   7   6
   41      2    2   7   8
   42      2    3   2  19
   43      2    3  10   9
   44      2    3   2   7
   45      2    3  10   9
   46      2    3   1  16
   47      2    3   2   7
   48      2    3   1  18
   49      2    3   2  19
   50      2    3   2   7
   51      2    3   2   7
   52      2    3  10  11
   53      2    3  10  12
   54      2    4   7   8
   55      2    4   7   6
   56      2    4  16  17
   57      2    5   4   7
   58      2    5   4  16
   59      2    6   7   8
   60      2    7   8   9
   61      2    7   2  19
   62      2    7   8  15
   63      2    7   8   9
   64      2    7   2  19
   65      2    7   4  16
   66      2    7   8  14
   67      2    8   9  10
   68      2    8   9  13
   69      2    8   9  10
   70      2    8   9  10
   71      2    8   9  13
   72      2    8   9  10
   73      2    9  10  11
   74      2    9  10  12
   75      2    9  10  11
   76      2    9  10  12
   77      2    9   8  14
   78      2    9   8  15
   79      2    9   8  14
   80      2    9   8  15
   81      2   10   9  13
   82      2   10   3  20
   83      2   10   9  13
   84      2   11  10  12
   85      2   14   8  15
   86      2   16   1  18
   87      3    1   3  10   9
   88      3    1  16   4   7
   89      3    1   3   2   7
   90      3    1  16   4   5
   91      3    1   3   2  19
   92      3    1   3  10  11
   93      3    1   3  10  12
   94      3    2   3  10   9
   95      3    2   7   8  14
   96      3    2   7   8  15
   97      3    2   7   8   9
   98      3    2   3   1  16
   99      3    2   7   4   5
  100      3    2   7   4  16
  101      3    2   3   1  18
  102      3    2   3  10  11
  103      3    2   3  10  12
  104      3    3   2   7   8
  105      3    3   2   7   6
  106      3    3   1  16   4
  107      3    3  10   9  13
  108      3    3   2   7   4
  109      3    3  10   9   8
  110      3    3   1  16  17
  111      3    4   7   2  19
  112      3    4  16   1  18
  113      3    4   7   8  14
  114      3    4   7   8  15
  115      3    4   7   8   9
  116      3    5   4  16  17
  117      3    5   4   7   6
  118      3    5   4   7   8
  119      3    6   7   2  19
  120      3    6   7   8  14
  121      3    6   7   8  15
  122      3    6   7   8   9
  123      3    6   7   4  16
  124      3    7   2   3  10
  125      3    7   2   3  20
  126      3    7   8   9  13
  127      3    7   8   9  10
  128      3    7   4  16  17
  129      3    8   7   2  19
  130      3    8   9  10  11
  131      3    8   9  10  12
  132      3    8   7   4  16
  133      3    9  10   3  20
  134      3   10   3   2  19
  135      3   10   3   1  18
  136      3   10   3   1  16
  137      3   10   9   8  14
  138      3   10   9   8  15
  139      3   11  10   9  13
  140      3   11  10   3  20
  141      3   12  10   9  13
  142      3   12  10   3  20
  143      3   13   9   8  14
  144      3   13   9   8  15
  145      3   16   1   3  20
  146      3   17  16   1  18
  147      3   18   1   3  20
  148      3   19   2   3  20

          INDEP./SYM. INTERNAL COORDINATES
          --------------------------------
 CRD  1=   0.1176 (  3)  0.1495 (  9)  0.1167 ( 13)  0.1522 ( 15)  0.4044 ( 29)
          -0.1381 ( 33) -0.1381 ( 34) -0.1373 ( 37) -0.1373 ( 41)  0.4023 ( 54)
          -0.1199 ( 59) -0.1214 ( 82)  0.1576 ( 89)  0.1657 ( 91)  0.1027 ( 99)
           0.2118 (104) -0.1549 (108) -0.1630 (111) -0.2092 (124)  0.2036 (129)
          -0.2011 (134)
 CRD  2=  -0.2083 (  1) -0.2959 (  3)  0.1520 ( 11)  0.2931 ( 13) -0.1867 ( 26)
          -0.1153 ( 30)  0.1289 ( 43)  0.1289 ( 45) -0.1476 ( 48)  0.1264 ( 55)
           0.1830 ( 56)  0.2022 ( 57) -0.1226 ( 58) -0.1070 ( 59) -0.1296 ( 60)
          -0.1296 ( 63)  0.1076 ( 82) -0.1895 ( 87) -0.1366 ( 92) -0.1289 ( 93)
          -0.1436 ( 94) -0.1444 ( 97)  0.1039 (104) -0.1376 (113) -0.1476 (114)
          -0.2045 (115)  0.1074 (124)  0.1016 (129)  0.1074 (134)
 CRD  3=  -0.1668 (  2) -0.1304 (  3) -0.1014 (  9) -0.1968 ( 11)  0.1342 ( 12)
           0.2463 ( 13)  0.1044 ( 24) -0.1029 ( 27) -0.1029 ( 28)  0.1814 ( 33)
           0.1814 ( 34) -0.1746 ( 37) -0.1746 ( 41) -0.1215 ( 43) -0.1215 ( 45)
           0.1502 ( 46) -0.1026 ( 48)  0.3550 ( 57) -0.1982 ( 58)  0.1556 ( 59)
          -0.1020 ( 62) -0.1570 ( 65) -0.1576 ( 82)  0.1797 (118)  0.1160 (126)
           0.1057 (127)  0.1982 (132)  0.1742 (135)  0.1826 (136)
 CRD  4=  -0.4212 (  9)  0.1119 ( 11)  0.4111 ( 15)  0.1369 ( 43)  0.1369 ( 45)
          -0.1999 ( 52) -0.1167 ( 53) -0.1431 ( 57)  0.1342 ( 58) -0.1043 ( 60)
           0.2205 ( 62) -0.1043 ( 63)  0.1360 ( 98)  0.1251 ( 99)  0.1508 (100)
           0.1101 (101)  0.1364 (118) -0.1037 (126) -0.1067 (127) -0.1086 (131)
           0.1621 (132)  0.1283 (135)  0.1542 (136)
 CRD  5=  -0.1526 (  1)  0.3345 (  3) -0.1039 (  9) -0.2562 ( 11) -0.1062 ( 12)
           0.1692 ( 13)  0.3146 ( 48) -0.1487 ( 52) -0.1309 ( 56)  0.2635 ( 57)
          -0.3841 ( 58) -0.1435 ( 60) -0.1435 ( 63)  0.1205 ( 65)  0.1464 ( 66)
          -0.2529 ( 86) -0.1650 (107) -0.1485 (109)
 CRD  6=  -0.2488 (  1) -0.3367 (  3) -0.3488 ( 11) -0.1359 ( 12) -0.3592 ( 13)
          -0.3256 ( 25)  0.2265 ( 31) -0.1005 ( 46) -0.2015 ( 53) -0.2166 ( 56)
           0.1278 ( 57)  0.1149 ( 62) -0.1912 ( 66)  0.1351 (107)  0.1336 (109)
          -0.1728 (126) -0.1719 (127)
 CRD  7=  -0.5402 (  9) -0.5531 ( 15) -0.1460 ( 53) -0.1097 ( 59) -0.1495 ( 66)
          -0.1031 ( 82) -0.1028 ( 91)  0.1161 (104)  0.1071 (111) -0.1154 (124)
           0.1449 (129) -0.1117 (131) -0.1430 (134)  0.1108 (137) -0.1002 (138)
          -0.1348 (141)  0.1335 (143)
 CRD  8=  -0.4416 (  1) -0.1043 (  2)  0.1499 ( 11) -0.4471 ( 26)  0.3191 ( 48)
           0.4054 ( 56) -0.1462 ( 57)  0.1892 ( 58) -0.3850 ( 86)
 CRD  9=   0.1592 (  4)  0.1592 (  5) -0.1517 ( 12) -0.1334 ( 13)  0.2047 ( 16)
           0.1493 ( 17)  0.1002 ( 18)  0.2047 ( 19)  0.1781 ( 20) -0.1089 ( 21)
           0.1781 ( 22)  0.2380 ( 24)  0.1002 ( 25)  0.1212 ( 26) -0.1173 ( 31)
          -0.1094 ( 48) -0.1880 ( 57)  0.1572 ( 65)  0.1666 ( 67) -0.1200 ( 68)
           0.1666 ( 69)  0.1666 ( 70) -0.1200 ( 71)  0.1666 ( 72)  0.1395 ( 77)
           0.1395 ( 79) -0.1041 ( 87) -0.1556 ( 93) -0.1183 ( 94)  0.1096 ( 95)
          -0.1698 (103)  0.1011 (113)
 CRD 10=   0.1887 (  2)  0.2703 (  3)  0.1045 (  4)  0.1045 (  5) -0.1680 (  7)
          -0.1680 (  8) -0.1693 ( 12) -0.1660 ( 13) -0.1774 ( 17) -0.1095 ( 20)
          -0.1095 ( 22) -0.1606 ( 23)  0.1742 ( 42) -0.1414 ( 46)  0.2262 ( 48)
           0.1742 ( 49) -0.1810 ( 61) -0.1810 ( 64) -0.1119 ( 74) -0.1119 ( 76)
           0.1047 ( 81)  0.1047 ( 83) -0.1264 ( 87) -0.1272 ( 94) -0.1250 ( 95)
          -0.1690 ( 97) -0.1156 (113) -0.1596 (115) -0.1085 (122) -0.1510 (133)
 CRD 11=  -0.1693 (  3) -0.3166 (  6) -0.2444 ( 13) -0.1246 ( 14)  0.1272 ( 18)
          -0.2276 ( 25)  0.1616 ( 31) -0.1206 ( 46) -0.1407 ( 52)  0.2621 ( 53)
           0.1154 ( 54) -0.1140 ( 56)  0.1117 ( 58) -0.1136 ( 60) -0.1189 ( 62)
          -0.1136 ( 63)  0.2653 ( 66) -0.2033 (107) -0.1860 (109)  0.2222 (126)
           0.2126 (127)
 CRD 12=   0.1661 (  1)  0.3337 (  2)  0.1723 (  4)  0.1723 (  5)  0.1870 (  7)
           0.1870 (  8)  0.2147 ( 10)  0.2042 ( 11)  0.3541 ( 12)  0.1658 ( 14)
           0.1191 ( 16)  0.1001 ( 17)  0.1191 ( 19)  0.1278 ( 20)  0.1278 ( 22)
          -0.1906 ( 25) -0.1576 ( 26)  0.3002 ( 31) -0.1996 ( 46)  0.1701 ( 48)
          -0.1425 ( 56)  0.1103 ( 57) -0.2043 ( 65)
 CRD 13=  -0.2225 (  2) -0.1054 (  4) -0.1054 (  5)  0.1154 (  7)  0.1154 (  8)
          -0.1057 (  9)  0.3257 ( 10) -0.1250 ( 11)  0.1675 ( 12) -0.3432 ( 14)
          -0.1551 ( 27) -0.1551 ( 28)  0.1483 ( 30)  0.1587 ( 35)  0.1587 ( 38)
           0.1446 ( 46) -0.1504 ( 55)  0.1671 ( 58)  0.1074 ( 62) -0.1143 ( 65)
          -0.1893 ( 86) -0.1011 ( 97)  0.1182 (114) -0.1182 (132) -0.1094 (136)
 CRD 14=   0.1777 (  4)  0.1777 (  5)  0.1852 (  6)  0.1529 (  7)  0.1529 (  8)
           0.1545 ( 14) -0.2190 ( 16) -0.1938 ( 17) -0.2190 ( 19) -0.2421 ( 20)
          -0.3148 ( 21) -0.2421 ( 22) -0.1890 ( 24) -0.1021 ( 30)  0.1080 ( 32)
           0.1067 ( 36)  0.1067 ( 39)  0.1080 ( 40) -0.1425 ( 73) -0.1425 ( 75)
          -0.1353 ( 78) -0.1353 ( 80)  0.1072 ( 90) -0.1238 ( 92)  0.1272 ( 96)
          -0.1145 (102) -0.1042 (112)  0.1028 (133)
 CRD 15=   0.2420 ( 16)  0.3117 ( 18)  0.2420 ( 19) -0.2245 ( 20) -0.2245 ( 22)
          -0.3003 ( 23)  0.2953 ( 68)  0.2953 ( 71)  0.1022 ( 78)  0.1022 ( 80)
          -0.2885 ( 81) -0.2885 ( 83)
 CRD 16=   0.1092 (  4)  0.1092 (  5) -0.1346 (  7) -0.1346 (  8)  0.2350 ( 10)
          -0.2654 ( 14)  0.2014 ( 42)  0.2014 ( 49)  0.1398 ( 52) -0.1636 ( 53)
          -0.2054 ( 61) -0.1026 ( 62) -0.2054 ( 64)  0.1680 ( 66)  0.1115 ( 74)
           0.1115 ( 76) -0.1182 ( 77) -0.1182 ( 79) -0.1158 ( 91)  0.1038 ( 98)
           0.1122 ( 99)  0.1239 (100) -0.1403 (130) -0.1634 (131) -0.1626 (137)
          -0.1101 (138) -0.1366 (139) -0.1597 (141) -0.1625 (143) -0.1101 (144)
          -0.1094 (148)
 CRD 17=  -0.1045 (  4) -0.1045 (  5)  0.1410 (  9) -0.2266 ( 14) -0.1192 ( 20)
          -0.2577 ( 21) -0.1192 ( 22) -0.1686 ( 23)  0.1435 ( 53)  0.1069 ( 62)
          -0.1433 ( 66) -0.1091 ( 74) -0.1091 ( 76)  0.1534 ( 82) -0.2109 ( 88)
          -0.1434 ( 89) -0.1732 ( 90) -0.1087 ( 91)  0.1150 ( 98)  0.1354 ( 99)
           0.1728 (100)  0.1081 (104) -0.1420 (116)  0.1244 (117)  0.1617 (123)
          -0.1501 (125) -0.1796 (128)  0.1511 (131)  0.1103 (132)  0.1518 (137)
           0.1642 (141)  0.1608 (143)  0.1440 (145)  0.1227 (147) -0.1153 (148)
 CRD 18=   0.2332 (  2)  0.3804 (  6) -0.5418 ( 10)  0.1855 ( 12) -0.3771 ( 14)
          -0.1439 ( 21) -0.1371 ( 25)
 CRD 19=   0.3477 (  6) -0.2180 ( 14)  0.1678 ( 18)  0.4283 ( 21)  0.1693 ( 23)
          -0.1565 ( 24) -0.1227 ( 52)  0.1028 ( 53) -0.1136 ( 59)  0.1094 ( 98)
           0.1070 ( 99)  0.1189 (100) -0.1532 (106) -0.1265 (108) -0.1344 (110)
          -0.1350 (111) -0.1277 (112)  0.1034 (117) -0.1071 (119)  0.1153 (123)
           0.1133 (130)  0.1125 (131)  0.1304 (133) -0.1090 (146)
 CRD 20=   0.1271 (  7)  0.1271 (  8) -0.3336 ( 17)  0.3036 ( 18)  0.1609 ( 21)
          -0.1128 ( 23)  0.1529 ( 24)  0.1296 ( 32)  0.1296 ( 40) -0.1541 ( 42)
          -0.1541 ( 49)  0.1195 ( 52) -0.1638 ( 53) -0.1082 ( 55)  0.1613 ( 61)
          -0.1290 ( 62)  0.1613 ( 64)  0.1787 ( 66) -0.1651 (122)  0.1079 (123)
          -0.1271 (130) -0.1771 (131) -0.1831 (137) -0.1297 (138) -0.1386 (139)
          -0.1885 (141) -0.1954 (143) -0.1420 (144)
 CRD 21=   0.1845 ( 18)  0.3392 ( 21)  0.3336 ( 23) -0.2787 ( 24)  0.1021 ( 59)
           0.1123 ( 62) -0.1030 ( 73) -0.1030 ( 75) -0.1124 ( 88) -0.1133 ( 90)
           0.1100 (104)  0.1795 (105)  0.1942 (106)  0.1615 (108)  0.1806 (110)
           0.1171 (111)  0.1656 (112) -0.1004 (116)  0.1350 (119) -0.1306 (124)
          -0.1308 (125) -0.1043 (134) -0.1033 (135) -0.1308 (136)  0.1222 (138)
           0.1030 (144) -0.1083 (145)  0.1520 (146) -0.1045 (148)
 CRD 22=  -0.1323 (  6) -0.1177 ( 14)  0.2113 ( 17)  0.2239 ( 18)  0.1665 ( 21)
           0.1737 ( 23)  0.2687 ( 24)  0.2438 ( 52)  0.2375 ( 62) -0.1089 ( 78)
          -0.1089 ( 80) -0.1093 (105) -0.3024 (130) -0.1962 (131)  0.1861 (137)
           0.2889 (138) -0.2169 (139) -0.1108 (141)  0.2014 (144)
 CRD 23=   0.4865 ( 17)  0.3611 ( 18) -0.3509 ( 23) -0.4498 ( 24) -0.1738 ( 84)
           0.1835 ( 85) -0.1011 ( 95) -0.1051 (113) -0.1104 (120)
 CRD 24=   0.2005 (  6)  0.3831 ( 17)  0.2835 ( 18) -0.1682 ( 21)  0.3470 ( 23)
           0.3855 ( 24) -0.1226 ( 74) -0.1226 ( 76) -0.1279 ( 77) -0.1279 ( 79)
           0.1784 ( 84)  0.1625 ( 85)  0.1382 ( 93) -0.1440 ( 95)  0.1334 (103)
          -0.1457 (113) -0.1636 (120)  0.1078 (130)  0.1013 (139)  0.1520 (142)
 CRD 25=  -0.1257 (  2) -0.1270 (  7) -0.1270 (  8)  0.2024 ( 12) -0.2123 ( 17)
           0.3667 ( 18) -0.1804 ( 23)  0.1849 ( 24) -0.1009 ( 52)  0.1012 ( 73)
           0.1012 ( 75)  0.1049 ( 77) -0.1524 ( 78)  0.1049 ( 79) -0.1524 ( 80)
           0.1055 ( 92)  0.1048 ( 93)  0.1593 ( 95)  0.2036 ( 96)  0.1185 (102)
           0.1177 (103)  0.1486 (113)  0.1929 (114)  0.2054 (120)  0.2497 (121)
           0.1086 (122)  0.1562 (140)  0.1555 (142)
 CRD 26=   0.1997 (  2) -0.3561 (  6)  0.1007 ( 12)  0.1995 ( 18) -0.1053 ( 21)
           0.3400 ( 23) -0.1392 ( 24) -0.1247 ( 73) -0.1247 ( 75) -0.1879 ( 92)
          -0.1340 ( 93)  0.1015 ( 96) -0.1862 (102) -0.1323 (103)  0.1268 (109)
           0.1075 (114)  0.1070 (121) -0.1015 (127)  0.2143 (130) -0.2125 (138)
           0.1491 (139) -0.2194 (140) -0.1656 (142) -0.1424 (144)
 CRD 27=   0.1215 ( 10)  0.1729 ( 59)  0.1873 ( 82)  0.1294 ( 88) -0.1439 ( 89)
           0.1534 ( 98) -0.1177 (100)  0.2417 (105) -0.1512 (106)  0.1352 (108)
          -0.3008 (110)  0.2073 (116) -0.1612 (117)  0.1995 (119) -0.2246 (123)
          -0.2561 (125)  0.2712 (128)  0.2718 (145) -0.2373 (146)  0.2108 (147)
          -0.2103 (148)
 CRD 28=  -0.1085 (  1) -0.4178 (  2) -0.2131 ( 10)  0.3118 ( 12)  0.1714 ( 13)
           0.3550 ( 14) -0.2372 ( 25)  0.3170 ( 26) -0.3093 ( 56) -0.2562 ( 57)
           0.2546 ( 58) -0.1127 ( 86)
 CRD 29=   0.2316 (  3)  0.1024 (  6)  0.2615 ( 10) -0.1217 ( 11) -0.2661 ( 12)
           0.2158 ( 13) -0.6349 ( 25) -0.2681 ( 48)  0.1297 ( 56) -0.1224 ( 57)
           0.2347 ( 86)
 CRD 30=  -0.1717 (  6)  0.1669 (  9) -0.1300 ( 10) -0.1288 ( 14)  0.1684 ( 15)
          -0.1074 ( 59)  0.2734 ( 90) -0.2130 ( 91) -0.2716 ( 99)  0.2794 (101)
           0.1980 (110)  0.2038 (111) -0.2745 (112) -0.1149 (117) -0.2369 (118)
           0.1163 (123) -0.2009 (128)  0.1919 (129) -0.1908 (134)  0.2425 (135)
           0.1027 (141) -0.1016 (143)  0.1275 (147)
 CRD 31=  -0.3308 (  1) -0.2926 (  2)  0.2397 (  3)  0.2285 ( 10)  0.3658 ( 11)
           0.3254 ( 12) -0.2469 ( 13) -0.2381 ( 14) -0.1239 ( 48)  0.1091 ( 57)
          -0.2323 ( 58)  0.1232 ( 65)  0.2201 ( 86)
 CRD 32=   0.2404 (  2)  0.1445 (  3) -0.3452 (  6) -0.1370 ( 11)  0.2205 ( 12)
           0.1585 ( 13)  0.2067 ( 17) -0.2581 ( 18)  0.3997 ( 21) -0.2593 ( 23)
           0.2039 ( 24) -0.1545 ( 25) -0.1072 ( 31) -0.1233 (120) -0.1106 (122)
           0.1130 (133)  0.1277 (142)
 CRD 33=   0.1889 (  1) -0.1972 (  2)  0.2010 (  3) -0.3070 ( 10)  0.1056 ( 12)
          -0.1890 ( 13)  0.2332 ( 14) -0.1150 ( 25) -0.2549 ( 26)  0.1178 ( 30)
           0.1616 ( 42) -0.1457 ( 48)  0.1616 ( 49) -0.1457 ( 55)  0.2747 ( 56)
           0.1779 ( 57) -0.2232 ( 58) -0.1650 ( 61) -0.1650 ( 64)  0.1891 ( 86)
           0.1223 ( 93)  0.1334 (113)
 CRD 34=   0.2573 (  1) -0.3651 (  2)  0.1106 (  3)  0.1505 (  4)  0.1505 (  5)
          -0.2023 (  6)  0.1407 (  7)  0.1407 (  8) -0.2091 ( 10)  0.2961 ( 11)
          -0.4319 ( 12)  0.1917 ( 13) -0.2751 ( 14) -0.2335 ( 25)  0.1114 ( 48)
 CRD 35=   0.2491 (  6)  0.1339 ( 17) -0.1445 ( 18)  0.3639 ( 21) -0.1358 ( 23)
           0.1133 ( 24)  0.1641 ( 25)  0.1632 ( 53)  0.1637 ( 66) -0.1145 ( 92)
           0.1216 ( 96) -0.1226 (102)  0.1206 (114)  0.1246 (120)  0.1977 (121)
           0.1228 (122)  0.1591 (131) -0.1334 (133) -0.1648 (137) -0.2098 (140)
           0.2221 (141) -0.1187 (142) -0.2313 (143)
 CRD 36=   0.1057 ( 13)  0.1659 ( 16)  0.2580 ( 17)  0.1659 ( 19) -0.1637 ( 20)
          -0.1637 ( 22) -0.2632 ( 24) -0.2221 ( 68) -0.2221 ( 71) -0.1489 ( 74)
          -0.1489 ( 76)  0.1533 ( 77)  0.1533 ( 79)  0.2224 ( 81)  0.2224 ( 83)
           0.1715 ( 84) -0.1720 ( 85)  0.1428 ( 93)  0.1708 ( 95)  0.1738 (103)
           0.1404 (113)  0.1660 (120) -0.1045 (139) -0.1304 (141)  0.1717 (142)
          -0.1101 (143)
 CRD 37=   0.1104 (  2) -0.1666 (  6) -0.1808 (  9)  0.1162 ( 12) -0.1757 ( 15)
           0.1286 ( 18) -0.1303 ( 21)  0.1312 ( 23)  0.1437 ( 52)  0.1033 ( 53)
           0.1436 ( 62)  0.1043 ( 66)  0.2509 (107) -0.1276 (110)  0.1001 (117)
          -0.2503 (126)  0.1216 (128) -0.1394 (130)  0.1357 (131) -0.1380 (137)
           0.1424 (138)  0.3512 (141) -0.3535 (143) -0.1047 (147)
 CRD 38=   0.4051 (  1) -0.2428 (  3)  0.1430 (  6) -0.1180 (  7) -0.1180 (  8)
           0.1849 ( 12) -0.1808 ( 13) -0.3341 ( 25) -0.2704 ( 31)  0.1838 ( 48)
           0.2018 ( 56) -0.2051 ( 58)  0.1715 ( 65) -0.2573 ( 86)  0.1053 ( 90)
          -0.1096 ( 99)  0.1028 (145)  0.1044 (146)
 CRD 39=  -0.1518 (  2)  0.1216 (  3)  0.1122 (  4)  0.1122 (  5) -0.2805 ( 11)
           0.1215 ( 13)  0.2110 ( 25) -0.1976 ( 26)  0.1859 ( 31) -0.1451 ( 46)
          -0.1154 ( 52) -0.1085 ( 53)  0.1122 ( 58) -0.1119 ( 59)  0.1878 ( 86)
           0.1158 ( 90) -0.1298 ( 99) -0.1660 (101) -0.1480 (105)  0.1837 (112)
           0.2035 (116) -0.1295 (119)  0.1916 (123) -0.1263 (125)  0.1513 (130)
          -0.1170 (131) -0.1232 (135)  0.1371 (138)  0.1380 (139) -0.1302 (141)
           0.1641 (144)  0.1235 (145) -0.1452 (148)
 CRD 40=  -0.3227 (  1)  0.2331 (  2) -0.1191 (  4) -0.1191 (  5)  0.4075 ( 11)
          -0.1979 ( 12)  0.2345 ( 26)  0.1114 ( 42)  0.1854 ( 46) -0.1192 ( 48)
           0.1114 ( 49) -0.1700 ( 56)  0.1549 ( 57) -0.1081 ( 61) -0.1081 ( 64)
          -0.1324 ( 65)  0.1138 (113) -0.1292 (119) -0.1074 (125)  0.1096 (130)
           0.1210 (138)  0.1175 (139)  0.1090 (144)  0.1023 (145) -0.1147 (148)
 CRD 41=   0.1027 (  3) -0.1966 (  9)  0.1003 ( 13) -0.2251 ( 15)  0.1002 ( 59)
           0.1115 ( 82)  0.1190 ( 90)  0.2724 ( 91)  0.1228 (105)  0.2764 (110)
          -0.2568 (111) -0.1268 (112) -0.1649 (116) -0.2415 (117) -0.1073 (118)
          -0.1552 (123) -0.1347 (125) -0.2521 (128) -0.1985 (129)  0.1977 (134)
           0.1149 (135) -0.1208 (143)  0.1662 (145)  0.1734 (146)  0.2652 (147)
 CRD 42=  -0.2945 (  9)  0.2689 ( 15)  0.1043 ( 52)  0.1313 ( 53) -0.1038 ( 62)
          -0.1279 ( 66) -0.1521 ( 73) -0.1521 ( 75)  0.1478 ( 78)  0.1478 ( 80)
           0.1898 ( 90) -0.1739 ( 99) -0.1402 (101) -0.1102 (105)  0.1946 (112)
           0.2225 (116) -0.1191 (117) -0.1515 (118) -0.1312 (119)  0.1250 (123)
          -0.1301 (125) -0.1393 (130)  0.1331 (131) -0.1166 (135)  0.1371 (137)
          -0.1399 (138) -0.1449 (139)  0.1276 (141)  0.1219 (143) -0.1551 (144)
           0.1233 (145)  0.1601 (146) -0.1039 (148)
 CRD 43=  -0.2281 (  3)  0.2243 ( 13) -0.1982 ( 18)  0.2032 ( 23)  0.1214 ( 30)
           0.1699 ( 32) -0.1638 ( 36) -0.1638 ( 39)  0.1699 ( 40)  0.1220 ( 42)
           0.1220 ( 49) -0.1444 ( 55) -0.1164 ( 61) -0.1164 ( 64)  0.1055 ( 68)
           0.1055 ( 71)  0.1143 ( 73)  0.1143 ( 75) -0.1124 ( 78) -0.1124 ( 80)
          -0.1026 ( 81) -0.1026 ( 83) -0.1486 ( 84)  0.1293 ( 85)  0.1279 ( 92)
           0.1689 ( 96)  0.1783 (102)  0.1342 (114) -0.1319 (120) -0.1842 (122)
          -0.1778 (130) -0.1719 (133) -0.1728 (138) -0.1536 (139) -0.1324 (142)
          -0.1513 (144)
 CRD 44=  -0.1308 (  2) -0.1465 (  4) -0.1465 (  5) -0.1668 (  7) -0.1668 (  8)
           0.1799 ( 10) -0.1058 ( 12)  0.1838 ( 14) -0.1483 ( 16)  0.1534 ( 17)
          -0.1483 ( 19) -0.1414 ( 20) -0.1414 ( 22)  0.1655 ( 24)  0.1261 ( 27)
           0.1261 ( 28) -0.1678 ( 30)  0.1275 ( 35)  0.1275 ( 38) -0.1422 ( 46)
           0.1268 ( 48) -0.1515 ( 55)  0.1157 ( 57) -0.1184 ( 65)  0.1251 ( 74)
           0.1251 ( 76)  0.1154 ( 77)  0.1154 ( 79) -0.1704 ( 84) -0.1875 ( 85)
          -0.2190 ( 93) -0.1210 ( 96)  0.2084 (113) -0.1536 (121)  0.1078 (133)
           0.1430 (140)
 CRD 45=  -0.2096 (  3)  0.2049 ( 13)  0.2015 ( 18) -0.2064 ( 23)  0.1200 ( 30)
           0.1288 ( 32) -0.1282 ( 36) -0.1282 ( 39)  0.1288 ( 40) -0.1180 ( 55)
          -0.1342 ( 73) -0.1342 ( 75)  0.1299 ( 78)  0.1299 ( 80)  0.1294 ( 84)
          -0.1150 ( 85) -0.1259 ( 92)  0.1389 ( 94)  0.1423 ( 97)  0.1185 (105)
          -0.1198 (114)  0.1034 (119) -0.1186 (120) -0.2470 (121)  0.1183 (125)
           0.1257 (130)  0.1235 (138)  0.1117 (139) -0.2542 (140) -0.1091 (142)
           0.1098 (144)  0.1081 (148)
 CRD 46=   0.1469 (  4)  0.1469 (  5)  0.1669 (  7)  0.1669 (  8) -0.1230 ( 10)
          -0.1348 ( 14) -0.1989 ( 16)  0.1492 ( 17) -0.1989 ( 19) -0.1947 ( 20)
          -0.1947 ( 22)  0.1514 ( 24)  0.1194 ( 30)  0.1167 ( 55)  0.1082 ( 59)
           0.1192 ( 74)  0.1192 ( 76)  0.1173 ( 77)  0.1173 ( 79)  0.1039 ( 82)
          -0.1737 ( 84) -0.1795 ( 85)  0.1118 ( 87)  0.1809 ( 92)  0.1471 ( 95)
          -0.1384 (103) -0.1821 (114) -0.1053 (115)  0.1049 (118)  0.1908 (120)
          -0.1105 (135) -0.1958 (142)
 CRD 47=   0.2539 (  4)  0.2539 (  5) -0.2507 (  7) -0.2507 (  8) -0.1268 ( 10)
           0.1176 ( 14) -0.2307 ( 16)  0.1100 ( 17) -0.2307 ( 19)  0.2213 ( 20)
           0.2213 ( 22) -0.1068 ( 24) -0.1052 ( 27) -0.1052 ( 28) -0.1734 ( 42)
          -0.1734 ( 49)  0.1705 ( 61)  0.1705 ( 64)  0.1481 ( 68)  0.1481 ( 71)
          -0.1042 ( 74) -0.1042 ( 76)  0.1055 ( 77)  0.1055 ( 79) -0.1498 ( 81)
          -0.1498 ( 83)  0.1215 ( 93) -0.1215 ( 94) -0.1156 ( 97)  0.1179 (113)
 CRD 48=   0.2067 (  9) -0.1981 ( 15)  0.1276 ( 54)  0.1001 ( 59) -0.2395 ( 88)
          -0.1173 ( 89)  0.1209 ( 90)  0.1611 ( 98) -0.1065 ( 99)  0.2517 (100)
           0.1752 (105) -0.1606 (110) -0.1628 (111)  0.1614 (112)  0.2978 (116)
          -0.3599 (117) -0.1925 (118)  0.1410 (125)  0.1657 (132) -0.1162 (145)
          -0.2462 (147)  0.2209 (148)
 CRD 49=   0.1977 (  4)  0.1977 (  5) -0.2161 (  7) -0.2161 (  8) -0.1197 ( 10)
           0.2442 ( 16) -0.1147 ( 17)  0.2442 ( 19) -0.2379 ( 20) -0.2379 ( 22)
           0.1345 ( 24) -0.1262 ( 42) -0.1262 ( 49)  0.1099 ( 61)  0.1099 ( 64)
          -0.1273 ( 68) -0.1273 ( 71)  0.1250 ( 74)  0.1250 ( 76) -0.1055 ( 77)
          -0.1055 ( 79)  0.1403 ( 81)  0.1403 ( 83) -0.1133 ( 84)  0.1078 ( 85)
           0.1340 ( 87)  0.1146 ( 92) -0.1223 ( 95) -0.1537 (103)  0.1039 (114)
           0.1074 (115) -0.1244 (120) -0.1279 (142)
 CRD 50=  -0.1120 (  3)  0.1135 (  4)  0.1135 (  5) -0.1695 (  6) -0.1111 ( 13)
           0.1012 ( 14) -0.1132 ( 17) -0.1188 ( 20)  0.1720 ( 21) -0.1188 ( 22)
           0.1037 ( 23) -0.1404 ( 32)  0.1017 ( 35) -0.1188 ( 36)  0.1017 ( 38)
          -0.1188 ( 39) -0.1404 ( 40) -0.1707 ( 44) -0.1707 ( 47) -0.1707 ( 50)
          -0.1707 ( 51)  0.1018 ( 61)  0.1018 ( 64)  0.1883 ( 67)  0.1883 ( 69)
           0.1883 ( 70)  0.1883 ( 72)  0.1394 ( 73)  0.1394 ( 75) -0.1127 ( 77)
           0.1376 ( 78) -0.1127 ( 79)  0.1376 ( 80) -0.1061 ( 87) -0.1427 ( 95)
          -0.1342 ( 96)  0.1317 (102)  0.1136 (103)  0.1257 (115)  0.1443 (122)
          -0.1370 (133)
 CRD 51=  -0.1232 ( 15)  0.2052 ( 88)  0.1273 ( 90) -0.1723 ( 91)  0.1760 ( 98)
           0.1158 ( 99) -0.1748 (101) -0.3154 (106) -0.1525 (108) -0.2129 (116)
           0.2495 (119) -0.1357 (123) -0.1351 (128)  0.1713 (129) -0.1352 (134)
          -0.1581 (135)  0.1928 (136)  0.1622 (145)  0.4088 (146) -0.1887 (147)
          -0.1449 (148)
 CRD 52=   0.1122 (  3) -0.1014 (  4) -0.1014 (  5)  0.1309 (  6)  0.1143 ( 13)
           0.1049 ( 32)  0.1067 ( 36)  0.1067 ( 39)  0.1049 ( 40)  0.1145 ( 44)
           0.1145 ( 47)  0.1145 ( 50)  0.1145 ( 51)  0.1443 ( 67)  0.1443 ( 69)
           0.1443 ( 70)  0.1443 ( 72)  0.1075 ( 73)  0.1075 ( 75)  0.1055 ( 78)
           0.1055 ( 80) -0.1264 ( 94)  0.1282 ( 97) -0.1383 (104)  0.2033 (107)
           0.1390 (119)  0.1399 (124) -0.2034 (126) -0.2266 (131)  0.2259 (137)
           0.2302 (139) -0.2305 (144) -0.1281 (148)
 CRD 53=  -0.1137 ( 18) -0.1087 ( 21) -0.1121 ( 23) -0.1122 ( 43) -0.1122 ( 45)
          -0.1114 ( 60) -0.1114 ( 63)  0.1126 ( 74)  0.1126 ( 76)  0.1151 ( 77)
           0.1151 ( 79)  0.1381 ( 94) -0.1423 ( 97)  0.1120 (107) -0.2515 (109)
          -0.1095 (126)  0.2534 (127) -0.2736 (131)  0.2729 (137)  0.2993 (139)
          -0.3009 (144)
 CRD 54=   0.1487 (  9)  0.1344 ( 15) -0.1039 ( 33) -0.1039 ( 34) -0.1012 ( 37)
          -0.1012 ( 41)  0.1992 ( 88) -0.2843 ( 89)  0.2751 ( 98) -0.2187 (100)
           0.1533 (104) -0.2327 (106)  0.2708 (108) -0.1441 (116)  0.1661 (117)
          -0.2784 (119) -0.1489 (124) -0.1640 (129)  0.1684 (134) -0.1071 (135)
           0.1249 (136)  0.2036 (146) -0.2098 (147)  0.2876 (148)

 THE DETERMINANT OF THE G MATRIX IS 10**(   -17)


                     --------------------
                     INTERNAL COORDINATES
                     --------------------

                 - - ATOMS - -         COORDINATE      COORDINATE
 NO.   TYPE    I  J  K  L  M  N        (BOHR,RAD)       (ANG,DEG)
 ----------------------------------------------------------------
   1 STRETCH   1 16                     2.4910333       1.3181981
   2 STRETCH   1 18                     2.0491801       1.0843795
   3 STRETCH   1  3                     2.8396681       1.5026878
   4 STRETCH   2  3                     2.6513347       1.4030260
   5 STRETCH   2  3                     2.6513347       1.4030260
   6 STRETCH   2 19                     2.0450410       1.0821892
   7 STRETCH   2  7                     2.6400909       1.3970761
   8 STRETCH   2  7                     2.6400909       1.3970761
   9 STRETCH   3 10                     3.7794521       2.0000000
  10 STRETCH   3 20                     2.0516820       1.0857034
  11 STRETCH   4 16                     2.8543459       1.5104549
  12 STRETCH   4  5                     2.3141713       1.2246068
  13 STRETCH   4  7                     2.8958694       1.5324282
  14 STRETCH   6  7                     2.0524154       1.0860915
  15 STRETCH   7  8                     3.7794520       2.0000000
  16 STRETCH   8  9                     2.6424179       1.3983074
  17 STRETCH   8 15                     2.0508809       1.0852795
  18 STRETCH   8 14                     2.0491194       1.0843474
  19 STRETCH   8  9                     2.6424179       1.3983074
  20 STRETCH   9 10                     2.6438882       1.3990855
  21 STRETCH   9 13                     2.0442211       1.0817553
  22 STRETCH   9 10                     2.6438882       1.3990855
  23 STRETCH  10 12                     2.0487040       1.0841275
  24 STRETCH  10 11                     2.0503097       1.0849772
  25 STRETCH  16 17                     2.0450142       1.0821750
  26 BEND      1 16 17                  2.1317569     122.1406709
  27 BEND      1  3  2                  2.0295649     116.2855003
  28 BEND      1  3  2                  2.0295649     116.2855003
  29 BEND      1  3 10                  1.7874407     102.4128111
  30 BEND      1  3 20                  2.0032286     114.7765453
  31 BEND      1 16  4                  2.1156516     121.2179056
  32 BEND      2  7  6                  2.0660769     118.3774845
  33 BEND      2  3 10                  1.7620037     100.9553760
  34 BEND      2  3 10                  1.7620037     100.9553760
  35 BEND      2  7  4                  2.0579736     117.9131989
  36 BEND      2  3 20                  2.0589092     117.9668069
  37 BEND      2  7  8                  1.7675796     101.2748532
  38 BEND      2  7  4                  2.0579736     117.9131989
  39 BEND      2  3 20                  2.0589092     117.9668069
  40 BEND      2  7  6                  2.0660769     118.3774845
  41 BEND      2  7  8                  1.7675796     101.2748532
  42 BEND      3  2 19                  2.0870007     119.5763347
  43 BEND      3 10  9                  1.8004470     103.1580146
  44 BEND      3  2  7                  2.0527633     117.6146760
  45 BEND      3 10  9                  1.8004470     103.1580146
  46 BEND      3  1 16                  2.1224121     121.6052562
  47 BEND      3  2  7                  2.0527633     117.6146760
  48 BEND      3  1 18                  2.0448540     117.1615037
  49 BEND      3  2 19                  2.0870007     119.5763347
  50 BEND      3  2  7                  2.0527633     117.6146760
  51 BEND      3  2  7                  2.0527633     117.6146760
  52 BEND      3 10 11                  1.7931643     102.7407451
  53 BEND      3 10 12                  1.6862458      96.6147680
  54 BEND      4  7  8                  1.7546322     100.5330190
  55 BEND      4  7  6                  1.9824130     113.5838968
  56 BEND      4 16 17                  2.0356934     116.6366386
  57 BEND      5  4  7                  2.1377160     122.4821028
  58 BEND      5  4 16                  2.1469877     123.0133312
  59 BEND      6  7  8                  1.7503441     100.2873284
  60 BEND      7  8  9                  1.8157070     104.0323457
  61 BEND      7  2 19                  2.0875331     119.6068369
  62 BEND      7  8 15                  1.7849532     102.2702835
  63 BEND      7  8  9                  1.8157070     104.0323457
  64 BEND      7  2 19                  2.0875331     119.6068369
  65 BEND      7  4 16                  1.9984672     114.5037388
  66 BEND      7  8 14                  1.6734639      95.8824167
  67 BEND      8  9 10                  2.0910056     119.8057967
  68 BEND      8  9 13                  2.0626270     118.1798194
  69 BEND      8  9 10                  2.0910056     119.8057967
  70 BEND      8  9 10                  2.0910056     119.8057967
  71 BEND      8  9 13                  2.0626270     118.1798194
  72 BEND      8  9 10                  2.0910056     119.8057967
  73 BEND      9 10 11                  2.0637994     118.2469969
  74 BEND      9 10 12                  2.0668953     118.4243752
  75 BEND      9 10 11                  2.0637994     118.2469969
  76 BEND      9 10 12                  2.0668953     118.4243752
  77 BEND      9  8 14                  2.0658891     118.3667255
  78 BEND      9  8 15                  2.0664318     118.3978185
  79 BEND      9  8 14                  2.0658891     118.3667255
  80 BEND      9  8 15                  2.0664318     118.3978185
  81 BEND     10  9 13                  2.0632995     118.2183553
  82 BEND     10  3 20                  1.7478514     100.1445101
  83 BEND     10  9 13                  2.0632995     118.2183553
  84 BEND     11 10 12                  1.9695287     112.8456816
  85 BEND     14  8 15                  1.9706012     112.9071325
  86 BEND     16  1 18                  2.1159187     121.2332120
  87 TORSION   1  3 10  9              -1.0953949     -62.7615020
  88 TORSION   1 16  4  7               0.0207850       1.1908914
  89 TORSION   1  3  2  7               0.6537071      37.4546570
  90 TORSION   1 16  4  5              -3.1151575    -178.4853759
  91 TORSION   1  3  2 19              -2.8419255    -162.8303365
  92 TORSION   1  3 10 11               1.0591568      60.6852142
  93 TORSION   1  3 10 12               3.0710586     175.9586962
  94 TORSION   2  3 10  9               1.0041649      57.5344133
  95 TORSION   2  7  8 14               1.1513079      65.9650824
  96 TORSION   2  7  8 15              -3.1244875    -179.0199458
  97 TORSION   2  7  8  9              -0.9640810     -55.2377722
  98 TORSION   2  3  1 16              -0.3222693     -18.4646702
  99 TORSION   2  7  4  5              -2.8438627    -162.9413330
 100 TORSION   2  7  4 16               0.3033465      17.3804749
 101 TORSION   2  3  1 18               2.8203758     161.5956292
 102 TORSION   2  3 10 11              -3.1244687    -179.0188705
 103 TORSION   2  3 10 12              -1.1125669     -63.7453886
 104 TORSION   3  2  7  8               1.2423466      71.1812162
 105 TORSION   3  2  7  6               3.1332451     179.5217198
 106 TORSION   3  1 16  4              -0.0089550      -0.5130860
 107 TORSION   3 10  9 13               1.6178241      92.6944937
 108 TORSION   3  2  7  4              -0.6505475     -37.2736254
 109 TORSION   3 10  9  8              -1.1340862     -64.9783505
 110 TORSION   3  1 16 17               3.1182789     178.6642178
 111 TORSION   4  7  2 19               2.8451969     163.0177715
 112 TORSION   4 16  1 18               3.1315425     179.4241705
 113 TORSION   4  7  8 14              -3.0111883    -172.5283817
 114 TORSION   4  7  8 15              -1.0037984     -57.5134099
 115 TORSION   4  7  8  9               1.1566081      66.2687637
 116 TORSION   5  4 16 17               0.0400369       2.2939464
 117 TORSION   5  4  7  6              -0.3148898     -18.0418583
 118 TORSION   5  4  7  8               1.5390453      88.1808012
 119 TORSION   6  7  2 19               0.3458041      19.8131167
 120 TORSION   6  7  8 14              -0.9765973     -55.9549061
 121 TORSION   6  7  8 15               1.0307926      59.0600657
 122 TORSION   6  7  8  9              -3.0919862    -177.1577607
 123 TORSION   6  7  4 16               2.8323194     162.2799495
 124 TORSION   7  2  3 10              -1.2637958     -72.4101682
 125 TORSION   7  2  3 20               3.1377074     179.7773941
 126 TORSION   7  8  9 13              -1.6340774     -93.6257368
 127 TORSION   7  8  9 10               1.1179810      64.0555912
 128 TORSION   7  4 16 17              -3.1072059    -178.0297863
 129 TORSION   8  7  2 19              -1.5450944     -88.5273869
 130 TORSION   8  9 10 11              -3.0975985    -177.4793183
 131 TORSION   8  9 10 12               0.7008153      40.1537597
 132 TORSION   8  7  4 16              -1.5969307     -91.4973909
 133 TORSION   9 10  3 20               3.1216798     178.8590789
 134 TORSION  10  3  2 19               1.5237569      87.3048383
 135 TORSION  10  3  1 18              -1.5602134     -89.3936452
 136 TORSION  10  3  1 16               1.5803268      90.5460555
 137 TORSION  10  9  8 14              -0.7106664     -40.7181864
 138 TORSION  10  9  8 15               3.0830642     176.6465689
 139 TORSION  11 10  9 13              -0.3456882     -19.8064741
 140 TORSION  11 10  3 20              -1.0069538     -57.6942049
 141 TORSION  12 10  9 13              -2.8304597    -162.1733961
 142 TORSION  12 10  3 20               1.0049480      57.5792771
 143 TORSION  13  9  8 14               2.8204605     161.6004857
 144 TORSION  13  9  8 15               0.3310059      18.9652409
 145 TORSION  16  1  3 20              -2.8271368    -161.9830080
 146 TORSION  17 16  1 18              -0.0244089      -1.3985257
 147 TORSION  18  1  3 20               0.3155083      18.0772914
 148 TORSION  19  2  3 20              -0.3579251     -20.5075993

     ------------------------------------------
     THE POINT GROUP IS C1 , NAXIS= 0, ORDER= 1
     ------------------------------------------

     DIMENSIONS OF THE SYMMETRY SUBSPACES ARE
 A   =   60

 ..... DONE SETTING UP THE RUN .....
 STEP CPU TIME =     0.07 TOTAL CPU TIME =          0.1 (      0.0 MIN)
 TOTAL WALL CLOCK TIME=          0.1 SECONDS, CPU UTILIZATION IS    77.78%

          -----------------------------
          INTRINSIC REACTION COORDINATE
          -----------------------------
          PACE   =GS2     
          STRIDE = 0.20000 BOHR*SQRT(AMU)
          NPOINT =     100
          NEXTPT =       0
          STOTAL =  0.0000 BOHR*SQRT(AMU)
          SAB    =  0.0000 BOHR*SQRT(AMU)
          NPRT   =       0
          NPUN   =       0

          SADDLE =       T
          TSENGY =       T
          FORWRD =       T
          EVIB   = 0.00050 HARTREE
          FREQ   =     0.0 CM**-1

          STABLZ =       F
          ELBOW  =  175.00 DEGREES
          DELTA  = 0.02500 BOHR

          READQB =       F
          EB     =        0.0000000000 HARTREES
          GBNORM =        0.0000000000 HARTREES/SQRT(AMU)-BOHR

          GCUT   = 0.0000667 HARTREES/SQRT(AMU)-BOHR
          RCUT   = 0.0006667 BOHR
          ACUT   =    5.00 DEGREES
          MXOPT  =      20
          IHUPD  =       2

 ATOMIC MASSES USED (IN AMU) ARE
     C             12.0000
     C             12.0000
     C             12.0000
     C             12.0000
     O             15.9949
     H              1.0078
     C             12.0000
     C             12.0000
     C             12.0000
     C             12.0000
     H              1.0078
     H              1.0078
     H              1.0078
     H              1.0078
     H              1.0078
     C             12.0000
     H              1.0078
     H              1.0078
     H              1.0078
     H              1.0078

 JUMP AWAY FROM SADDLE POINT WILL BE FOUND FROM THE INPUT HESSIAN MATRIX

 COMPUTING WAVEFUNCTION AT TRANSITION STATE...

          ********************
          1 ELECTRON INTEGRALS
          ********************
 ...... END OF ONE-ELECTRON INTEGRALS ......
 STEP CPU TIME =     0.02 TOTAL CPU TIME =          0.1 (      0.0 MIN)
 TOTAL WALL CLOCK TIME=          0.1 SECONDS, CPU UTILIZATION IS    75.00%

          -------------
          GUESS OPTIONS
          -------------
          GUESS =HUCKEL            NORB  =       0          NORDER=       0
          MIX   =       F          PRTMO =       F          PUNMO =       F
          TOLZ  = 1.0E-08          TOLE  = 1.0E-05
          SYMDEN=       F          PURIFY=       F

 INITIAL GUESS ORBITALS GENERATED BY HUCKEL   ROUTINE.
 HUCKEL GUESS REQUIRES     53820 WORDS.

 SYMMETRIES FOR INITIAL GUESS ORBITALS FOLLOW.   BOTH SET(S).
    36 ORBITALS ARE OCCUPIED (   10 CORE ORBITALS).
    11=A       12=A       13=A       14=A       15=A       16=A       17=A   
    18=A       19=A       20=A       21=A       22=A       23=A       24=A   
    25=A       26=A       27=A       28=A       29=A       30=A       31=A   
    32=A       33=A       34=A       35=A       36=A       37=A       38=A   
    39=A       40=A       41=A       42=A       43=A       44=A       45=A   
    46=A   
 ...... END OF INITIAL ORBITAL SELECTION ......
 STEP CPU TIME =     0.02 TOTAL CPU TIME =          0.1 (      0.0 MIN)
 TOTAL WALL CLOCK TIME=          0.1 SECONDS, CPU UTILIZATION IS    78.57%

                    ----------------------
                    AO INTEGRAL TECHNOLOGY
                    ----------------------
     S,P,L SHELL ROTATED AXIS INTEGRALS, REPROGRAMMED BY
        KAZUYA ISHIMURA (IMS) AND JOSE SIERRA (SYNSTAR).
     S,P,D,L SHELL ROTATED AXIS INTEGRALS PROGRAMMED BY
        KAZUYA ISHIMURA (INSTITUTE FOR MOLECULAR SCIENCE).
     S,P,D,F,G SHELL TO TOTAL QUARTET ANGULAR MOMENTUM SUM 5,
        ERIC PROGRAM BY GRAHAM FLETCHER (ELORET AND NASA ADVANCED
        SUPERCOMPUTING DIVISION, AMES RESEARCH CENTER).
     S,P,D,F,G,L SHELL GENERAL RYS QUADRATURE PROGRAMMED BY
        MICHEL DUPUIS (PACIFIC NORTHWEST NATIONAL LABORATORY).

          --------------------
          2 ELECTRON INTEGRALS
          --------------------

 THE -PK- OPTION IS OFF, THE INTEGRALS ARE NOT IN SUPERMATRIX FORM.
 STORING   15000 INTEGRALS/RECORD ON DISK, USING 12 BYTES/INTEGRAL.
 TWO ELECTRON INTEGRAL EVALUATION REQUIRES   89821 WORDS OF MEMORY.
 SCHWARZ INEQUALITY OVERHEAD:      1797 INTEGRALS, T=        0.00
 II,JST,KST,LST =  1  1  1  1 NREC =         1 INTLOC =    1
 II,JST,KST,LST =  2  1  1  1 NREC =         1 INTLOC =    2
 II,JST,KST,LST =  3  1  1  1 NREC =         1 INTLOC =   34
 II,JST,KST,LST =  4  1  1  1 NREC =         1 INTLOC =  124
 II,JST,KST,LST =  5  1  1  1 NREC =         1 INTLOC = 1312
 II,JST,KST,LST =  6  1  1  1 NREC =         1 INTLOC = 1934
 II,JST,KST,LST =  7  1  1  1 NREC =         1 INTLOC = 6828
 II,JST,KST,LST =  8  1  1  1 NREC =         1 INTLOC = 8442
 II,JST,KST,LST =  9  1  1  1 NREC =         2 INTLOC = 5838
 II,JST,KST,LST = 10  1  1  1 NREC =         2 INTLOC = 8999
 II,JST,KST,LST = 11  1  1  1 NREC =         4 INTLOC =  612
 II,JST,KST,LST = 12  1  1  1 NREC =         4 INTLOC = 8771
 II,JST,KST,LST = 13  1  1  1 NREC =         5 INTLOC = 1513
 II,JST,KST,LST = 14  1  1  1 NREC =         8 INTLOC = 5326
 II,JST,KST,LST = 15  1  1  1 NREC =         9 INTLOC = 1362
 II,JST,KST,LST = 16  1  1  1 NREC =        14 INTLOC = 3057
 II,JST,KST,LST = 17  1  1  1 NREC =        15 INTLOC = 4743
 II,JST,KST,LST = 18  1  1  1 NREC =        22 INTLOC =14437
 II,JST,KST,LST = 19  1  1  1 NREC =        24 INTLOC = 8409
 II,JST,KST,LST = 20  1  1  1 NREC =        35 INTLOC = 2013
 II,JST,KST,LST = 21  1  1  1 NREC =        38 INTLOC = 2511
 II,JST,KST,LST = 22  1  1  1 NREC =        41 INTLOC = 6622
 II,JST,KST,LST = 23  1  1  1 NREC =        45 INTLOC = 1720
 II,JST,KST,LST = 24  1  1  1 NREC =        48 INTLOC =14658
 II,JST,KST,LST = 25  1  1  1 NREC =        53 INTLOC = 1450
 II,JST,KST,LST = 26  1  1  1 NREC =        56 INTLOC = 9247
 II,JST,KST,LST = 27  1  1  1 NREC =        77 INTLOC =  159
 II,JST,KST,LST = 28  1  1  1 NREC =        82 INTLOC =10661
 II,JST,KST,LST = 29  1  1  1 NREC =        88 INTLOC =10035
 II,JST,KST,LST = 30  1  1  1 NREC =        95 INTLOC =  429
 SCHWARZ INEQUALITY TEST SKIPPED       23164 INTEGRAL BLOCKS.
 TOTAL NUMBER OF NONZERO TWO-ELECTRON INTEGRALS =             1509080
        101 INTEGRAL RECORDS WERE STORED ON DISK FILE  8.
  ...... END OF TWO-ELECTRON INTEGRALS .....
 STEP CPU TIME =     0.26 TOTAL CPU TIME =          0.4 (      0.0 MIN)
 TOTAL WALL CLOCK TIME=          0.4 SECONDS, CPU UTILIZATION IS    90.24%

          --------------------------
                 RHF SCF CALCULATION
          --------------------------

     NUCLEAR ENERGY =       513.0666308076
     MAXIT =   30     NPUNCH=    2
     EXTRAP=T  DAMP=F  SHIFT=F  RSTRCT=F  DIIS=F  DEM=F  SOSCF=T
     DENSITY MATRIX CONV=  1.00E-05
     SOSCF WILL OPTIMIZE     864 ORBITAL ROTATIONS, SOGTOL=   0.250
     MEMORY REQUIRED FOR RHF ITERS=     59496 WORDS.

 ITER EX DEM     TOTAL ENERGY        E CHANGE  DENSITY CHANGE     ORB. GRAD
   1  0  0     -415.5512690023  -415.5512690023   0.524136577   0.000000000
          ---------------START SECOND ORDER SCF---------------
   2  1  0     -416.0530720683    -0.5018030660   0.303790731   0.060846135
   3  2  0     -416.0825078036    -0.0294357354   0.147818633   0.048078408
   4  3  0     -416.1130957657    -0.0305879620   0.016991115   0.006091801
   5  4  0     -416.1138007373    -0.0007049716   0.004576353   0.002108962
   6  5  0     -416.1138870652    -0.0000863279   0.001771002   0.000725053
   7  6  0     -416.1138984895    -0.0000114243   0.000670849   0.000208633
   8  7  0     -416.1138999557    -0.0000014662   0.000316474   0.000068284
   9  8  0     -416.1139001282    -0.0000001725   0.000133457   0.000019749
  10  9  0     -416.1139001617    -0.0000000335   0.000067157   0.000007489
  11 10  0     -416.1139001670    -0.0000000052   0.000024878   0.000002834
  12 11  0     -416.1139001678    -0.0000000008   0.000006031   0.000001241
  13 12  0     -416.1139001679    -0.0000000001   0.000002994   0.000000491

          -----------------
          DENSITY CONVERGED
          -----------------
     TIME TO FORM FOCK OPERATORS=       0.3 SECONDS (       0.0 SEC/ITER)
     TIME TO SOLVE SCF EQUATIONS=       0.1 SECONDS (       0.0 SEC/ITER)

 FINAL RHF ENERGY IS     -416.1139001679 AFTER  13 ITERATIONS

          ------------
          EIGENVECTORS
          ------------

                      1          2          3          4          5
                  -20.2570   -11.1154   -11.0556   -11.0481   -11.0465
                     A          A          A          A          A   
    1  C  1  S    0.000005  -0.000259  -0.011779   0.004566  -0.099161
    2  C  1  S    0.000055   0.000119  -0.006459   0.000195  -0.003664
    3  C  1  X    0.000075  -0.000091   0.004216  -0.000033   0.000070
    4  C  1  Y   -0.000007  -0.000020  -0.000904  -0.000048   0.000267
    5  C  1  Z    0.000003  -0.000014   0.000151  -0.000003   0.000105
    6  C  2  S    0.000004  -0.000235   0.003911  -0.002370   0.005381
    7  C  2  S    0.000038   0.000097  -0.006862   0.001127  -0.006815
    8  C  2  X   -0.000064   0.000028  -0.002669   0.000216  -0.000971
    9  C  2  Y   -0.000032   0.000001  -0.002609  -0.000825   0.004307
   10  C  2  Z    0.000003   0.000027  -0.002617  -0.000218   0.000543
   11  C  3  S    0.000003  -0.000305   0.991654  -0.001316   0.002780
   12  C  3  S    0.000006  -0.000092   0.036160   0.000022   0.000786
   13  C  3  X   -0.000008  -0.000060   0.000054  -0.000037   0.000364
   14  C  3  Y    0.000042   0.000096  -0.000197  -0.000047   0.000067
   15  C  3  Z    0.000005   0.000045  -0.001586   0.000005  -0.000054
   16  C  4  S    0.000548   0.992569   0.000327   0.000118   0.002728
   17  C  4  S   -0.007181   0.032713  -0.000015   0.000942  -0.005572
   18  C  4  X   -0.001966   0.000222   0.000002  -0.000741   0.003938
   19  C  4  Y    0.005673  -0.000323  -0.000138   0.000273  -0.001077
   20  C  4  Z    0.002139  -0.000050  -0.000079  -0.000139   0.000070
   21  O  5  S    0.994267   0.000164   0.000006  -0.000010  -0.000023
   22  O  5  S    0.025983  -0.005779  -0.000058   0.000034   0.000257
   23  O  5  X   -0.001727   0.000519   0.000015  -0.000003  -0.000212
   24  O  5  Y    0.004983  -0.001535  -0.000033   0.000011   0.000087
   25  O  5  Z    0.001884  -0.000592  -0.000007   0.000046  -0.000006
   26  H  6  S   -0.000175  -0.000012  -0.000083   0.001306  -0.006759
   27  C  7  S   -0.000024  -0.001725  -0.004236  -0.167519   0.972909
   28  C  7  S    0.000268  -0.005444  -0.000071  -0.008621   0.034734
   29  C  7  X    0.000038  -0.003861  -0.000092   0.000616   0.000183
   30  C  7  Y   -0.000427   0.001193  -0.000052   0.000648   0.001409
   31  C  7  Z   -0.000211   0.000218  -0.000134  -0.002049  -0.001272
   32  C  8  S   -0.000010  -0.000506   0.000234   0.977677   0.167955
   33  C  8  S    0.000050   0.000008   0.000079   0.035960   0.003513
   34  C  8  X    0.000062  -0.000377  -0.000007   0.000037  -0.000690
   35  C  8  Y   -0.000022  -0.000004   0.000017   0.000221  -0.000868
   36  C  8  Z   -0.000018   0.000074   0.000021   0.001012   0.002464
   37  C  9  S    0.000001  -0.000216  -0.000906   0.003980  -0.000180
   38  C  9  S   -0.000024  -0.000025   0.000179  -0.006647  -0.001121
   39  C  9  X   -0.000002  -0.000081  -0.000068   0.002336   0.000332
   40  C  9  Y    0.000001  -0.000013   0.000205   0.002635   0.000388
   41  C  9  Z    0.000002   0.000146   0.000096   0.002795   0.000455
   42  C 10  S   -0.000000   0.000044  -0.027260  -0.014496  -0.004443
   43  C 10  S    0.000005   0.000025  -0.003619  -0.000417  -0.000091
   44  C 10  X   -0.000001   0.000022  -0.000724   0.000070   0.000026
   45  C 10  Y   -0.000003  -0.000016  -0.000803   0.000058  -0.000021
   46  C 10  Z   -0.000001  -0.000033   0.002234   0.000094   0.000027
   47  H 11  S   -0.000000   0.000004   0.000297  -0.000003   0.000024
   48  H 12  S   -0.000001  -0.000001   0.000251   0.000051   0.000043
   49  H 13  S    0.000023  -0.000135   0.000036   0.000047   0.000058
   50  H 14  S    0.000015  -0.000142   0.000006  -0.006790  -0.001117
   51  H 15  S   -0.000025  -0.000241  -0.000002  -0.006795  -0.001055
   52  C 16  S   -0.000025  -0.001002  -0.000889   0.000454  -0.003160
   53  C 16  S    0.000271  -0.005699   0.000263  -0.000016   0.000845
   54  C 16  X    0.000285   0.002433  -0.000118  -0.000022  -0.000128
   55  C 16  Y   -0.000403   0.002985   0.000063  -0.000051   0.000390
   56  C 16  Z   -0.000142   0.001479  -0.000017   0.000012   0.000140
   57  H 17  S   -0.000192   0.000009  -0.000042   0.000012  -0.000071
   58  H 18  S   -0.000021  -0.000038   0.000159  -0.000018   0.000627
   59  H 19  S   -0.000021  -0.000042   0.000079   0.000060   0.000086
   60  H 20  S   -0.000016  -0.000027  -0.006912   0.000022  -0.000140

                      6          7          8          9         10
                  -11.0462   -11.0458   -11.0237   -11.0193   -11.0106
                     A          A          A          A          A   
    1  C  1  S    0.982083   0.098126  -0.019912   0.001183   0.000920
    2  C  1  S    0.035582   0.003375  -0.008931   0.000144  -0.000060
    3  C  1  X    0.000482   0.000095  -0.001589  -0.000003   0.000089
    4  C  1  Y   -0.001438  -0.000091   0.004098   0.000094   0.000157
    5  C  1  Z   -0.000536  -0.000131   0.001659   0.000137  -0.000111
    6  C  2  S   -0.000505  -0.001586  -0.006764   0.992070   0.003672
    7  C  2  S   -0.000623  -0.000340  -0.000348   0.036679   0.000136
    8  C  2  X   -0.000184   0.000002  -0.000204   0.000371   0.000014
    9  C  2  Y    0.000425   0.000097   0.000061  -0.000997   0.000065
   10  C  2  Z    0.000106  -0.000103  -0.000008   0.001836  -0.000142
   11  C  3  S    0.010247   0.029298   0.000685  -0.003096   0.000874
   12  C  3  S   -0.005119  -0.002099   0.000420  -0.007156  -0.000018
   13  C  3  X   -0.004079   0.000270   0.000143   0.002666  -0.000050
   14  C  3  Y    0.000932   0.000924   0.000062   0.002545   0.000363
   15  C  3  Z    0.000379  -0.002264  -0.000008   0.002710  -0.000010
   16  C  4  S    0.000614   0.000033   0.001991   0.000284   0.000271
   17  C  4  S   -0.000445  -0.000048  -0.005891   0.000148  -0.000061
   18  C  4  X    0.000483   0.000050  -0.002602  -0.000069   0.000044
   19  C  4  Y   -0.000238  -0.000019  -0.002936  -0.000120  -0.000045
   20  C  4  Z   -0.000038   0.000015  -0.001461   0.000027  -0.000186
   21  O  5  S    0.000010   0.000001  -0.000022   0.000009   0.000001
   22  O  5  S   -0.000085  -0.000004   0.000251  -0.000083  -0.000023
   23  O  5  X   -0.000021  -0.000003   0.000123   0.000035  -0.000001
   24  O  5  Y   -0.000049  -0.000004   0.000167  -0.000025  -0.000022
   25  O  5  Z   -0.000024  -0.000001   0.000077  -0.000026   0.000028
   26  H  6  S   -0.000735  -0.000092  -0.000092   0.000122  -0.000139
   27  C  7  S    0.097876   0.011648   0.001240  -0.004819   0.000984
   28  C  7  S    0.003459   0.000455   0.000251  -0.007301   0.000005
   29  C  7  X   -0.000103  -0.000005  -0.000004   0.001006  -0.000170
   30  C  7  Y    0.000034   0.000060  -0.000009  -0.004457  -0.000180
   31  C  7  Z   -0.000175  -0.000068  -0.000049  -0.000490  -0.000232
   32  C  8  S    0.010777   0.016268  -0.000187   0.001559  -0.003165
   33  C  8  S    0.000159   0.000680   0.000053   0.000060  -0.007221
   34  C  8  X   -0.000034   0.000020   0.000039   0.000036  -0.002413
   35  C  8  Y   -0.000042  -0.000131   0.000029  -0.000442  -0.002658
   36  C  8  Z    0.000225   0.000087   0.000002   0.000052  -0.002916
   37  C  9  S   -0.001337   0.004041  -0.001309  -0.003620   0.992095
   38  C  9  S    0.000511  -0.006916  -0.000080  -0.000093   0.036742
   39  C  9  X   -0.000187   0.000845  -0.000033  -0.000020   0.000076
   40  C  9  Y    0.000372  -0.004362  -0.000065  -0.000064   0.000861
   41  C  9  Z    0.000220  -0.000295   0.000160   0.000149  -0.001976
   42  C 10  S   -0.099230   0.986718  -0.000196   0.001730  -0.003341
   43  C 10  S   -0.003601   0.035793   0.000048   0.000061  -0.007206
   44  C 10  X   -0.000294  -0.000383   0.000028   0.000182  -0.000819
   45  C 10  Y    0.000154  -0.001051  -0.000037   0.000208   0.004532
   46  C 10  Z    0.000002   0.001020  -0.000021   0.000363   0.000344
   47  H 11  S    0.000565  -0.006873   0.000009  -0.000174   0.000105
   48  H 12  S    0.000550  -0.006868   0.000005  -0.000203   0.000048
[...]
  12 H       4.6025493    3.8904671    2.6498050 *  2.1522597 *  1.0879286 *
  13 H       4.8359318    3.9837723    2.0749601 *  1.0844318 *  2.2166329 *
  14 H       4.5072922    4.1558180    1.0817593 *  2.0958887 *  2.7748699 *
  15 H       4.9617345    4.5558989    1.0811643 *  2.0923532 *  3.5025160  
  16 C       3.5127306    2.5434560 *  4.5518174    3.6088874    3.5450621  
  17 H       4.3900848    3.5124789    5.3406862    4.3722024    4.4298222  
  18 H       5.0181653    3.9387805    4.7524835    3.4895931    2.8889029 *
  19 H       2.4338152 *  2.0865062 *  3.7849357    3.5582138    2.8770257 *
  20 H       4.1407840    3.2342625    4.4288240    3.4808693    2.1508015 *

               11 H         12 H         13 H         14 H         15 H     

   1 C       2.7763219 *  3.4717282    2.8817326 *  4.7443765    4.8549623  
   2 C       3.4639942    2.7313084 *  3.6605851    3.5873556    4.3907389  
   3 C       2.1705000 *  2.1720768 *  2.9761504 *  3.7816057    4.4377825  
   4 C       4.7336483    4.6921007    3.7946517    4.9332039    4.8101995  
   5 O       5.8654075    5.8171899    4.5817415    5.7121492    5.3321791  
   6 H       5.4077070    4.6025493    4.8359318    4.5072922    4.9617345  
   7 C       4.4586909    3.8904671    3.9837723    4.1558180    4.5558989  
   8 C       3.2557189    2.6498050 *  2.0749601 *  1.0817593 *  1.0811643 *
   9 C       2.1497669 *  2.1522597 *  1.0844318 *  2.0958887 *  2.0923532 *
  10 C       1.0896487 *  1.0879286 *  2.2166329 *  2.7748699 *  3.5025160  
  11 H       0.0000000    1.7584843 *  2.4998407 *  3.6066497    4.1578545  
  12 H       1.7584843 *  0.0000000    3.0863727    2.4716613 *  3.7262796  
  13 H       2.4998407 *  3.0863727    0.0000000    3.0545887    2.4222670 *
  14 H       3.6066497    2.4716613 *  3.0545887    0.0000000    1.8323098 *
  15 H       4.1578545    3.7262796    2.4222670 *  1.8323098 *  0.0000000  
  16 C       3.9449368    4.4447042    3.2782005    5.1934140    5.0079045  
  17 H       4.6688156    5.4003375    3.8143719    6.0883935    5.6648183  
  18 H       2.6901605 *  3.8631183    3.1635400    5.3710310    5.4143981  
  19 H       3.8299743    2.6359024 *  4.3401834    3.4812368    4.6757464  
  20 H       2.4259731 *  2.4590727 *  3.9163538    4.5293034    5.4001339  

               16 C         17 H         18 H         19 H         20 H     

   1 C       1.3134955 *  2.0946281 *  1.0848872 *  3.5016801    2.1377402 *
   2 C       2.8550336 *  3.9346162    3.5022848    1.0847992 *  2.1374729 *
   3 C       2.5062489 *  3.4987388    2.2186617 *  2.2175384 *  1.0935697 *
   4 C       1.5109470 *  2.2146001 *  3.4678202    3.4664776    3.7837788  
   5 O       2.4055102 *  2.6558675 *  4.4840616    4.4834480    5.0056998  
   6 H       3.5127306    4.3900848    5.0181653    2.4338152 *  4.1407840  
   7 C       2.5434560 *  3.5124789    3.9387805    2.0865062 *  3.2342625  
   8 C       4.5518174    5.3406862    4.7524835    3.7849357    4.4288240  
   9 C       3.6088874    4.3722024    3.4895931    3.5582138    3.4808693  
  10 C       3.5450621    4.4298222    2.8889029 *  2.8770257 *  2.1508015 *
  11 H       3.9449368    4.6688156    2.6901605 *  3.8299743    2.4259731 *
  12 H       4.4447042    5.4003375    3.8631183    2.6359024 *  2.4590727 *
  13 H       3.2782005    3.8143719    3.1635400    4.3401834    3.9163538  
  14 H       5.1934140    6.0883935    5.3710310    3.4812368    4.5293034  
  15 H       5.0079045    5.6648183    5.4143981    4.6757464    5.4001339  
  16 C       0.0000000    1.0828012 *  2.0867318 *  3.9369895    3.2335645  
  17 H       1.0828012 *  0.0000000    2.4334100 *  5.0163406    4.1399706  
  18 H       2.0867318 *  2.4334100 *  0.0000000    4.3849631    2.5001696 *
  19 H       3.9369895    5.0163406    4.3849631    0.0000000    2.4987775 *
  20 H       3.2335645    4.1399706    2.5001696 *  2.4987775 *  0.0000000  

  * ... LESS THAN  3.000


          CURRENT CARTESIAN GRADIENT
          ATOM               DE/DX          DE/DY          DE/DZ
          -----------------------------------------------------------
          C                0.0000495558   0.0000976196  -0.0000722852
          C               -0.0000631099   0.0002447478  -0.0000875931
          C                0.0000256991   0.0000666635  -0.0000242537
          C               -0.0002117322   0.0001243546   0.0002436048
          O               -0.0002690451  -0.0004688907   0.0004710384
          H               -0.0000229547  -0.0000011946  -0.0000149143
          C               -0.0000481608   0.0000825928   0.0000603165
          C                0.0003475813  -0.0004300486  -0.0004559515
          C                0.0001939498  -0.0000081933  -0.0000643802
          C                0.0000746396   0.0000258503   0.0000698029
          H               -0.0000279258  -0.0000337818  -0.0000294651
          H               -0.0000458267   0.0000182469  -0.0000317989
          H                0.0001120516   0.0000165891   0.0000124632
          H               -0.0000481405  -0.0000433473  -0.0001083562
          H                0.0000104057   0.0000690413  -0.0000705977
          C               -0.0001010405   0.0001075578   0.0001189416
          H                0.0000011864   0.0000160275   0.0000161385
          H               -0.0000201157  -0.0000008352  -0.0000445321
          H                0.0000618625   0.0000286442  -0.0000022385
          H               -0.0000188799   0.0000883560   0.0000140607


                     --------------------
                     INTERNAL COORDINATES
                     --------------------

                 - - ATOMS - -         COORDINATE      COORDINATE
 NO.   TYPE    I  J  K  L  M  N        (BOHR,RAD)       (ANG,DEG)
 ----------------------------------------------------------------
   1 STRETCH   1 16                     2.4821467       1.3134955
   2 STRETCH   1 18                     2.0501396       1.0848872
   3 STRETCH   1  3                     2.8804782       1.5242836
   4 STRETCH   2  3                     2.8803150       1.5241972
   5 STRETCH   2  3                     2.8803150       1.5241972
   6 STRETCH   2 19                     2.0499733       1.0847992
   7 STRETCH   2  7                     2.4818751       1.3133518
   8 STRETCH   2  7                     2.4818751       1.3133518
   9 STRETCH   3 10                     2.9594123       1.5660537
  10 STRETCH   3 20                     2.0665471       1.0935697
  11 STRETCH   4 16                     2.8552759       1.5109470
  12 STRETCH   4  5                     2.3176286       1.2264363
  13 STRETCH   4  7                     2.8539752       1.5102587
  14 STRETCH   6  7                     2.0461040       1.0827517
  15 STRETCH   7  8                     7.5422895       3.9912080
  16 STRETCH   8  9                     2.4725899       1.3084383
  17 STRETCH   8 15                     2.0431043       1.0811643
  18 STRETCH   8 14                     2.0442287       1.0817593
  19 STRETCH   8  9                     2.4725899       1.3084383
  20 STRETCH   9 10                     2.8810196       1.5245700
  21 STRETCH   9 13                     2.0492789       1.0844318
  22 STRETCH   9 10                     2.8810196       1.5245700
  23 STRETCH  10 12                     2.0558869       1.0879286
  24 STRETCH  10 11                     2.0591374       1.0896487
  25 STRETCH  16 17                     2.0461976       1.0828012
  26 BEND      1 16 17                  2.1220129     121.5823826
  27 BEND      1  3  2                  1.9560690     112.0745007
  28 BEND      1  3  2                  1.9560690     112.0745007
  29 BEND      1  3 10                  1.9346068     110.8448072
  30 BEND      1  3 20                  1.8913936     108.3688693
  31 BEND      1 16  4                  2.1316025     122.1318244
  32 BEND      2  7  6                  2.1227227     121.6230547
  33 BEND      2  3 10                  1.9269924     110.4085325
  34 BEND      2  3 10                  1.9269924     110.4085325
  35 BEND      2  7  4                  2.1305845     122.0734983
  36 BEND      2  3 20                  1.8911343     108.3540152
  37 BEND      2  7  8                  1.0832794      62.0673362
  38 BEND      2  7  4                  2.1305845     122.0734983
  39 BEND      2  3 20                  1.8911343     108.3540152
  40 BEND      2  7  6                  2.1227227     121.6230547
  41 BEND      2  7  8                  1.0832794      62.0673362
  42 BEND      3  2 19                  2.0137975     115.3820962
  43 BEND      3 10  9                  1.9697048     112.8557699
  44 BEND      3  2  7                  2.1636701     123.9691643
  45 BEND      3 10  9                  1.9697048     112.8557699
  46 BEND      3  1 16                  2.1622240     123.8863079
  47 BEND      3  2  7                  2.1636701     123.9691643
  48 BEND      3  1 18                  2.0152483     115.4652205
  49 BEND      3  2 19                  2.0137975     115.3820962
  50 BEND      3  2  7                  2.1636701     123.9691643
  51 BEND      3  2  7                  2.1636701     123.9691643
  52 BEND      3 10 11                  1.8900644     108.2927153
  53 BEND      3 10 12                  1.8938637     108.5103973
  54 BEND      4  7  8                  1.6993444      97.3652597
  55 BEND      4  7  6                  2.0298723     116.3031167
  56 BEND      4 16 17                  2.0295643     116.2854708
  57 BEND      5  4  7                  2.1411053     122.6762956
  58 BEND      5  4 16                  2.1406071     122.6477496
  59 BEND      6  7  8                  1.9432900     111.3423159
  60 BEND      7  8  9                  1.1429197      65.4844738
  61 BEND      7  2 19                  2.1054135     120.6313054
  62 BEND      7  8 15                  2.0084373     115.0749832
  63 BEND      7  8  9                  1.1429197      65.4844738
  64 BEND      7  2 19                  2.1054135     120.6313054
  65 BEND      7  4 16                  2.0014698     114.6757743
  66 BEND      7  8 14                  1.5905866      91.1338981
  67 BEND      8  9 10                  2.1768930     124.7267817
  68 BEND      8  9 13                  2.0938027     119.9660604
  69 BEND      8  9 10                  2.1768930     124.7267817
  70 BEND      8  9 10                  2.1768930     124.7267817
  71 BEND      8  9 13                  2.0938027     119.9660604
  72 BEND      8  9 10                  2.1768930     124.7267817
  73 BEND      9 10 11                  1.9113843     109.5142557
  74 BEND      9 10 12                  1.9165772     109.8117858
  75 BEND      9 10 11                  1.9113843     109.5142557
  76 BEND      9 10 12                  1.9165772     109.8117858
  77 BEND      9  8 14                  2.1336496     122.2491169
  78 BEND      9  8 15                  2.1283552     121.9457676
  79 BEND      9  8 14                  2.1336496     122.2491169
  80 BEND      9  8 15                  2.1283552     121.9457676
  81 BEND     10  9 13                  2.0123848     115.3011582
  82 BEND     10  3 20                  1.8602148     106.5824542
  83 BEND     10  9 13                  2.0123848     115.3011582
  84 BEND     11 10 12                  1.8799437     107.7128380
  85 BEND     14  8 15                  2.0211778     115.8049576
  86 BEND     16  1 18                  2.1054528     120.6335585
  87 TORSION   1  3 10  9              -1.0417273     -59.6865791
  88 TORSION   1 16  4  7               0.1335469       7.6516732
  89 TORSION   1  3  2  7               0.1661540       9.5199234
  90 TORSION   1 16  4  5              -3.0106790    -172.4991992
  91 TORSION   1  3  2 19              -3.0018743    -171.9947304
  92 TORSION   1  3 10 11               1.0772526      61.7220249
  93 TORSION   1  3 10 12               3.1132451     178.3758049
  94 TORSION   2  3 10  9               1.1364666      65.1147403
  95 TORSION   2  7  8 14               1.0771401      61.7155810
  96 TORSION   2  7  8 15              -3.1232059    -178.9465138
  97 TORSION   2  7  8  9              -1.1093940     -63.5635926
  98 TORSION   2  3  1 16              -0.1649494      -9.4509024
  99 TORSION   2  7  4  5               3.0117806     172.5623171
 100 TORSION   2  7  4 16              -0.1324461      -7.5886034
 101 TORSION   2  3  1 18               3.0010894     171.9497554
 102 TORSION   2  3 10 11              -3.0277388    -173.4766558
 103 TORSION   2  3 10 12              -0.9917463     -56.8228757
 104 TORSION   3  2  7  8               1.3874432      79.4946417
 105 TORSION   3  2  7  6               3.1161784     178.5438710
 106 TORSION   3  1 16  4               0.0195092       1.1177976
 107 TORSION   3 10  9 13               1.2370105      70.8754806
 108 TORSION   3  2  7  4              -0.0216294      -1.2392735
 109 TORSION   3 10  9  8              -1.8889561    -108.2292111
 110 TORSION   3  1 16 17              -3.1183443    -178.6679672
 111 TORSION   4  7  2 19              -3.1354648    -179.6488992
 112 TORSION   4 16  1 18               3.1354508     179.6481005
 113 TORSION   4  7  8 14              -3.0677876    -175.7712832
 114 TORSION   4  7  8 15              -0.9849483     -56.4333780
 115 TORSION   4  7  8  9               1.0288636      58.9495432
 116 TORSION   5  4 16 17               0.1273610       7.2972489
 117 TORSION   5  4  7  6              -0.1262170      -7.2317000
 118 TORSION   5  4  7  8               1.9375486     111.0133553
 119 TORSION   6  7  2 19               0.0023430       0.1342453
 120 TORSION   6  7  8 14              -0.9381431     -53.7516399
 121 TORSION   6  7  8 15               1.1446963      65.5862653
 122 TORSION   6  7  8  9              -3.1246772    -179.0308135
 123 TORSION   6  7  4 16               3.0127416     172.6173795
 124 TORSION   7  2  3 10              -1.9997406    -114.5766986
 125 TORSION   7  2  3 20               2.2522911     129.0467745
 126 TORSION   7  8  9 13              -1.8321732    -104.9757942
 127 TORSION   7  8  9 10               1.2931123      74.0898784
 128 TORSION   7  4 16 17              -3.0115984    -172.5518788
 129 TORSION   8  7  2 19              -1.7263922     -98.9149840
 130 TORSION   8  9 10 11               2.2873710     131.0567017
 131 TORSION   8  9 10 12               0.2264123      12.9724682
 132 TORSION   8  7  4 16              -1.2066781     -69.1375652
 133 TORSION   9 10  3 20              -3.0964062    -177.4110091
 134 TORSION  10  3  2 19               1.1154163      63.9086477
 135 TORSION  10  3  1 18              -1.1204545     -64.1973161
 136 TORSION  10  3  1 16               1.9966920     114.4020261
 137 TORSION  10  9  8 14              -0.0125676      -0.7200698
 138 TORSION  10  9  8 15               3.1316544     179.4305791
 139 TORSION  11 10  9 13              -0.8698478     -49.8386066
 140 TORSION  11 10  3 20              -0.9774264     -56.0024051
 141 TORSION  12 10  9 13              -2.9308064    -167.9228401
 142 TORSION  12 10  3 20               1.0585662      60.6513749
 143 TORSION  13  9  8 14              -3.1378532    -179.7857424
 144 TORSION  13  9  8 15               0.0063688       0.3649065
 145 TORSION  16  1  3 20              -2.2509345    -128.9690474
 146 TORSION  17 16  1 18              -0.0024027      -0.1376643
 147 TORSION  18  1  3 20               0.9151042      52.4316104
 148 TORSION  19  2  3 20              -0.9157372     -52.4678792

 THE NUCLEAR REPULSION AT THE IRC POINT IS      488.4409761269

 * * * IRC RESTART INFORMATION * * *
 COORDINATES FOR $DATA AND ENTIRE $IRC GROUP FOLLOW

 COORDINATES OF SYMMETRY UNIQUE ATOMS (ANGS)
   ATOM   CHARGE       X              Y              Z
 ------------------------------------------------------------
 C           6.0   0.8020777499   0.5451757659   0.8461311553
 C           6.0  -1.4468052902   0.1259099371  -0.2307219262
 C           6.0  -0.6834363503   0.8867711721   0.8470234159
 C           6.0   0.4978946039  -1.3018217927  -0.7710955407
 O           8.0   0.9508422899  -2.2950808935  -1.3300416886
 H           1.0  -1.5181970544  -1.3822742383  -1.6828768539
 C           6.0  -0.9335583061  -0.8516662546  -0.9419288953
 C           6.0  -2.1768533069  -1.6844953950   2.7581190012
 C           6.0  -1.1857188282  -0.8324602429   2.6972962777
 C           6.0  -1.3155732270   0.6207247201   2.2549106016
 H           1.0  -0.8213199908   1.2673257784   2.9794484233
 H           1.0  -2.3655794173   0.9034457619   2.2210810035
 H           1.0  -0.1821811924  -1.1493427699   2.9590021713
 H           1.0  -3.1912396210  -1.4091930949   2.5023216956
 H           1.0  -2.0318537169  -2.7093672055   3.0704156827
 C           6.0   1.3290231402  -0.4292868660   0.1404246566
 H           1.0   2.3875621209  -0.6529754931   0.1842099844
 H           1.0   1.4209319576   1.1532515207   1.4974710132
 H           1.0  -2.4799411819   0.4265041425  -0.3687895605
 H           1.0  -0.7908833750   1.9577964578   0.6540087739
 $IRC   PACE=GS2        STRIDE= 0.20000   NPOINT=??
        STOTAL= 16.657079   NEXTPT=  85
        NPRT= 0   NPUN= 0   SADDLE=.FALSE.
        GA(   1)= 4.955584612E-05, 9.761961490E-05,-7.228521372E-05
        GA(   4)=-6.310990645E-05, 2.447478366E-04,-8.759311347E-05
        GA(   7)= 2.569910789E-05, 6.666353297E-05,-2.425367609E-05
        GA(  10)=-2.117322405E-04, 1.243545985E-04, 2.436047655E-04
        GA(  13)=-2.690451065E-04,-4.688906805E-04, 4.710384457E-04
        GA(  16)=-2.295465976E-05,-1.194557510E-06,-1.491429857E-05
        GA(  19)=-4.816075970E-05, 8.259280002E-05, 6.031654335E-05
        GA(  22)= 3.475813287E-04,-4.300485981E-04,-4.559515378E-04
        GA(  25)= 1.939497566E-04,-8.193332713E-06,-6.438016935E-05
        GA(  28)= 7.463962280E-05, 2.585025835E-05, 6.980286209E-05
        GA(  31)=-2.792577551E-05,-3.378180483E-05,-2.946508166E-05
        GA(  34)=-4.582670156E-05, 1.824690719E-05,-3.179890683E-05
        GA(  37)= 1.120515769E-04, 1.658912030E-05, 1.246323304E-05
        GA(  40)=-4.814046339E-05,-4.334731106E-05,-1.083562346E-04
        GA(  43)= 1.040567279E-05, 6.904130159E-05,-7.059774114E-05
        GA(  46)=-1.010405036E-04, 1.075578225E-04, 1.189415943E-04
        GA(  49)= 1.186373880E-06, 1.602745398E-05, 1.613854139E-05
        GA(  52)=-2.011574161E-05,-8.351711694E-07,-4.453212620E-05
        GA(  55)= 6.186248597E-05, 2.864422798E-05,-2.238531863E-06
        GA(  58)=-1.887992003E-05, 8.835597069E-05, 1.406065197E-05
 $END   
 A GS2 RESTART ALSO REQUIRES THE UPDATED $HESS GROUP FROM THE PUNCH FILE
 ......DONE WITH THIS PORTION OF THE IRC......
 STEP CPU TIME =     0.01 TOTAL CPU TIME =        264.4 (      4.4 MIN)
 TOTAL WALL CLOCK TIME=        267.5 SECONDS, CPU UTILIZATION IS    98.83%
               580000  WORDS OF DYNAMIC MEMORY USED
 EXECUTION OF GAMESS TERMINATED NORMALLY Sat Nov  6 22:13:01 2021
 DDI: 263640 bytes (0.3 MB / 0 MWords) used by master data server.

 ----------------------------------------
 CPU timing information for all processes
 ========================================
 0: 243.514 + 20.857 = 264.372
 ----------------------------------------
 ddikick.x: exited gracefully.
----- accounting info -----
Files used on the master node chemcompute-node-0.novalocal were:
-rw-r--r--. 1 chemcomp chemcomp    60737 Nov  6 22:08 /scratch/301851/336895.F05
-rw-rw-r--. 1 chemcomp chemcomp 16561472 Nov  6 22:13 /scratch/301851/336895.F08
-rw-rw-r--. 1 chemcomp chemcomp 65536000 Nov  6 22:13 /scratch/301851/336895.F10
Sat Nov  6 22:13:05 UTC 2021
0.175u 0.095s 4:31.30 0.0%	0+0k 120+328io 0pf+0w
Finishing Up...
Looking for IR data...
Looking for Raman data...
vibramans not found
Looking for thermodynamics data...
Looking for UV-Vis data...
301851
