----- GAMESS execution script 'rungms' -----
This job is running on host chemcompute-node-0.novalocal
under operating system Linux at Sat Nov 6 20:02:25 UTC 2021
SLURM has assigned the following compute nodes to this run:
chemcompute-node-0
Available scratch disk space (Kbyte units) at beginning of the job is
Filesystem     1K-blocks     Used Available Use% Mounted on
/dev/sda1       62903276 16917668  45985608  27% /
GAMESS temporary binary files will be written to /scratch/301770
GAMESS supplementary output files will be written to /data/slurm/336810
Copying input file 336810.inp to your run's scratch directory...
The generated host list is
chemcompute-node-0.novalocal

 Distributed Data Interface kickoff program.
 Initiating 1 compute processes on 1 nodes to run the following command:
 /data/gamess-2019R1-ddi/gamess.00.x 336810 

          ******************************************************
          *         GAMESS VERSION = 30 JUN 2019 (R1)          *
          *             FROM IOWA STATE UNIVERSITY             *
          * M.W.SCHMIDT, K.K.BALDRIDGE, J.A.BOATZ, S.T.ELBERT, *
          *   M.S.GORDON, J.H.JENSEN, S.KOSEKI, N.MATSUNAGA,   *
          *          K.A.NGUYEN, S.J.SU, T.L.WINDUS,           *
          *       TOGETHER WITH M.DUPUIS, J.A.MONTGOMERY       *
          *         J.COMPUT.CHEM.  14, 1347-1363(1993)        *
          **************** 64 BIT LINUX VERSION ****************

  SINCE 1993, STUDENTS AND POSTDOCS WORKING AT IOWA STATE UNIVERSITY
  AND ALSO IN THEIR VARIOUS JOBS AFTER LEAVING ISU HAVE MADE IMPORTANT
  CONTRIBUTIONS TO THE CODE:
     IVANA ADAMOVIC, CHRISTINE AIKENS, YURI ALEXEEV, POOJA ARORA,
     ANDREY ASADCHEV, ROB BELL, PRADIPTA BANDYOPADHYAY, JONATHAN BENTZ,
     COLLEEN BERTONI, BRETT BODE, KURT BRORSEN, CALEB CARLIN, GALINA CHABAN,
     WEI CHEN, CHEOL HO CHOI, PAUL DAY, ALBERT DEFUSCO, NUWAN DESILVA,
     TIM DUDLEY, DMITRI FEDOROV, ALEX FINDLATER, GRAHAM FLETCHER, 
     MARK FREITAG, KURT GLAESEMANN, ANASTASIA GUNINA,
     DAN KEMP, GRANT MERRILL, NORIYUKI MINEZAWA, JONATHAN MULLIN,
     TAKESHI NAGATA, SEAN NEDD, HEATHER NETZLOFF, BOSILJKA NJEGIC, RYAN OLSON,
     MIKE PAK, BUU PHAM,
     SPENCER PRUITT, LUKE ROSKOP, JIM SHOEMAKER, LYUDMILA SLIPCHENKO,
     TONY SMITH, SAROM SOK LEANG, JIE SONG, TETSUYA TAKETSUGU, SIMON WEBB,
     PENG XU, SOOHAENG YOO, FEDERICO ZAHARIEV

  ADDITIONAL CODE HAS BEEN PROVIDED BY COLLABORATORS IN OTHER GROUPS:
     IOWA STATE UNIVERSITY:
          JOE IVANIC, AARON WEST, LAIMUTIS BYTAUTAS, KLAUS RUEDENBERG
     UNIVERSITY OF TOKYO: KIMIHIKO HIRAO, TAKAHITO NAKAJIMA,
          TAKAO TSUNEDA, MUNEAKI KAMIYA, SUSUMU YANAGISAWA,
          KIYOSHI YAGI, MAHITO CHIBA, SEIKEN TOKURA, NAOAKI KAWAKAMI
     UNIVERSITY OF AARHUS: FRANK JENSEN
     UNIVERSITY OF IOWA: VISVALDAS KAIRYS, HUI LI
     NATIONAL INST. OF STANDARDS AND TECHNOLOGY: WALT STEVENS, DAVID GARMER
     UNIVERSITY OF PISA: BENEDETTA MENNUCCI, JACOPO TOMASI
     UNIVERSITY OF MEMPHIS: HENRY KURTZ, PRAKASHAN KORAMBATH
     UNIVERSITY OF ALBERTA: TOBY ZENG, MARIUSZ KLOBUKOWSKI
     UNIVERSITY OF NEW ENGLAND: MARK SPACKMAN
     MIE UNIVERSITY: HIROAKI UMEDA
     NAT. INST. OF ADVANCED INDUSTRIAL SCIENCE AND TECHNOLOGY: KAZUO KITAURA
     MICHIGAN STATE UNIVERSITY:
          KAROL KOWALSKI, MARTA WLOCH, JEFFREY GOUR, JESSE LUTZ,
          WEI LI, JUN SHEN, J. EMILIANO DEUSTUA, PIOTR PIECUCH
     UNIVERSITY OF MINNESOTA:
          YINAN SHU
     UNIVERSITY OF SILESIA: MONIKA MUSIAL, STANISLAW KUCHARSKI
     FACULTES UNIVERSITAIRES NOTRE-DAME DE LA PAIX:
          OLIVIER QUINET, BENOIT CHAMPAGNE
     UNIVERSITY OF CALIFORNIA - SANTA BARBARA: BERNARD KIRTMAN
     INSTITUTE FOR MOLECULAR SCIENCE:
          KAZUYA ISHIMURA, MICHIO KATOUDA, AND SHIGERU NAGASE
     UNIVERSITY OF NOTRE DAME: ANNA POMOGAEVA, DAN CHIPMAN
     KYUSHU UNIVERSITY:
          HARUYUKI NAKANO,
          FENG LONG GU, JACEK KORCHOWIEC, MARCIN MAKOWSKI, AND YURIKO AOKI,
          HIROTOSHI MORI AND EISAKU MIYOSHI
     PENNSYLVANIA STATE UNIVERSITY:
          TZVETELIN IORDANOV, CHET SWALINA, JONATHAN SKONE,
          SHARON HAMMES-SCHIFFER
     WASEDA UNIVERSITY:
          MASATO KOBAYASHI, TOMOKO AKAMA, TSUGUKI TOUMA,
          TAKESHI YOSHIKAWA, YASUHIRO IKABATA, JUNJI SEINO,
          YUYA NAKAJIMA, HIROMI NAKAI
     NANJING UNIVERSITY: SHUHUA LI
     UNIVERSITY OF NEBRASKA:
          PEIFENG SU, DEJUN SI, NANDUN THELLAMUREGE, YALI WANG, HUI LI
     UNIVERSITY OF ZURICH: ROBERTO PEVERATI, KIM BALDRIDGE
     N. COPERNICUS UNIVERSITY AND JACKSON STATE UNIVERSITY:
          MARIA BARYSZ
     UNIVERSITY OF COPENHAGEN: Jimmy Kromann, CASPER STEINMANN
     TOKYO INSTITUTE OF TECHNOLOGY: HIROYA NAKATA
     NAGOYA UNIVERSITY: YOSHIO NISHIMOTO, STEPHAN IRLE
     MOSCOW STATE UNIVERSITY: VLADIMIR MIRONOV
     A.N.NESMEYANOV INSTITUTE OF ORGANOELEMENT COMPOUNDS OF RUSSIAN ACADEMY OF SCIENCES:
          IGOR S. GERASIMOV

 EXECUTION OF GAMESS BEGUN Sat Nov  6 20:02:25 2021

            ECHO OF THE FIRST FEW INPUT CARDS -
 INPUT CARD>!File created by the GAMESS Input Deck Generator Plugin for Avogadro            
 INPUT CARD> $BASIS GBASIS=STO NGAUSS=3 $END                                                
 INPUT CARD> $CONTRL SCFTYP=RHF RUNTYP=OPTIMIZE NZVAR=1 mult=1  ICHARG=0 $END               
 INPUT CARD> $STATPT hssend=.t. OPTTOL=0.0005 NSTEP=50 $END                                 
 INPUT CARD> $STATPT HESS=calc ihrep=5 $END                                                 
 INPUT CARD> $FORCE nvib=2 $END                                                             
 INPUT CARD> $ZMAT DLC=.t. auto=.t. nonvdw(1)=3,10,7,8 $END                                 
 INPUT CARD> $ZMAT IFZMAT(1)=1,3,10,1,7,8 fvalue(1)=2.00,2.00 $END                          
 INPUT CARD>                                                                                
 INPUT CARD> $DATA                                                                          
 INPUT CARD>Title                                                                           
 INPUT CARD>C1                                                                              
 INPUT CARD>C     6.0     0.81338     0.77430     0.62671                                   
 INPUT CARD>C     6.0    -1.43941     0.41736    -0.16246                                   
 INPUT CARD>C     6.0    -0.62408     1.11423     0.67603                                   
 INPUT CARD>C     6.0     0.30563    -1.38846    -0.37903                                   
 INPUT CARD>O     8.0     0.71574    -2.47212    -0.79044                                   
 INPUT CARD>H     1.0    -1.78429    -1.57977    -1.02435                                   
 INPUT CARD>C     6.0    -1.17443    -1.05355    -0.28755                                   
 INPUT CARD>C     6.0    -1.70798    -1.77630     1.49746                                   
 INPUT CARD>C     6.0    -1.06574    -0.86874     2.50897                                   
 INPUT CARD>C     6.0    -1.27009     0.47329     2.45992                                   
 INPUT CARD>H     1.0    -0.72148     1.10277     3.16530                                   
 INPUT CARD>H     1.0    -2.26108     0.82852     2.14802                                   
 INPUT CARD>H     1.0    -0.22705    -1.26699     3.07487                                   
 INPUT CARD>H     1.0    -2.80067    -1.74066     1.49760                                   
 INPUT CARD>H     1.0    -1.30847    -2.79324     1.50521                                   
 INPUT CARD>C     6.0     1.27631    -0.37867     0.12155                                   
 INPUT CARD>H     1.0     2.32763    -0.62577     0.06788                                   
 INPUT CARD>H     1.0     1.50416     1.52964     0.99147                                   
 INPUT CARD>H     1.0    -2.42196     0.79549    -0.42535                                   
 INPUT CARD>H     1.0    -0.84562     2.17147     0.86430                                   
 INPUT CARD> $END                                                                           
    1000000 WORDS OF MEMORY AVAILABLE

     BASIS OPTIONS
     -------------
     GBASIS=STO          IGAUSS=       3      POLAR=NONE    
     NDFUNC=       0     NFFUNC=       0     DIFFSP=       F
     NPFUNC=       0      DIFFS=       F     BASNAM=        


     RUN TITLE
     ---------
 Title                                                                           

 THE POINT GROUP OF THE MOLECULE IS C1      
 THE ORDER OF THE PRINCIPAL AXIS IS     0

 ATOM      ATOMIC                      COORDINATES (BOHR)
           CHARGE         X                   Y                   Z
 C           6.0     1.5370653239        1.4632148323        1.1843101738
 C           6.0    -2.7200904840        0.7886960382       -0.3070048840
 C           6.0    -1.1793401944        2.1055893873        1.2775114595
 C           6.0     0.5775569536       -2.6238089449       -0.7162628411
 O           8.0     1.3525524785       -4.6716294088       -1.4937150097
 H           1.0    -3.3718191826       -2.9853324236       -1.9357408155
 C           6.0    -2.2193508918       -1.9909208144       -0.5433907078
 C           6.0    -3.2276141925       -3.3567202720        2.8297890776
 C           6.0    -2.0139565742       -1.6416805546        4.7412658114
 C           6.0    -2.4001220797        0.8943884127        4.6485747517
 H           1.0    -1.3633995056        2.0839331275        5.9815496689
 H           1.0    -4.2728216363        1.5656757753        4.0591692161
 H           1.0    -0.4290622855       -2.3942639292        5.8106617479
 H           1.0    -5.2924988820       -3.2893704378        2.8300536392
 H           1.0    -2.4726497632       -5.2784582179        2.8444344540
 C           6.0     2.4118761754       -0.7155825398        0.2296961938
 H           1.0     4.3985829008       -1.1825338313        0.1282746000
 H           1.0     2.8424502417        2.8906004599        1.8736066250
 H           1.0    -4.5768407532        1.5032581260       -0.8037949489
 H           1.0    -1.5979900897        4.1034832906        1.6332901712

          INTERNUCLEAR DISTANCES (ANGS.)
          ------------------------------

                1 C          2 C          3 C          4 C          5 O     

   1 C       0.0000000    2.4135572 *  1.4779297 *  2.4386172 *  3.5435985  
   2 C       2.4135572 *  0.0000000    1.3614170 *  2.5205263 *  3.6589787  
   3 C       1.4779297 *  1.3614170 *  0.0000000    2.8707089 *  4.0997022  
   4 C       2.4386172 *  2.5205263 *  2.8707089 *  0.0000000    1.2295395 *
   5 O       3.5435985    3.6589787    4.0997022    1.2295395 *  0.0000000  
   6 H       3.8749883    2.2023453 *  3.3904300    2.1956327 *  2.6647988 *
   7 C       2.8510166 *  1.4998127 *  2.4352909 *  1.5202338 *  2.4161916 *
   8 C       3.6906669    2.7639842 *  3.1944875    2.7796150 *  3.4048598  
   9 C       3.1262718    2.9883475 *  2.7362205 *  3.2390290    4.0780638  
  10 C       2.7914357 *  2.6284357 *  2.0025974 *  3.7428123    4.8149560  
  11 H       2.9846485 *  3.4726355    2.4912012 *  4.4523541    5.5220756  
  12 H       3.4306892    2.4864658 *  2.2199445 *  4.2295369    5.3282482  
  13 H       3.3530355    3.8454073    3.4032741    3.4968455    4.1571400  
  14 H       4.4882993    3.0439905    3.6827867    3.6462151    4.2585561  
  15 H       4.2427999    3.6202515    4.0526844    2.8511552 *  3.0774264  
  16 C       1.3412049 *  2.8441977 *  2.4794517 *  1.4874394 *  2.3512757 *
  17 H       2.1366890 *  3.9155800    3.4799480    2.2067869 *  2.5969041 *
  18 H       1.0866303 *  3.3516154    2.1912265 *  3.4394843    4.4509429  
  19 H       3.4021617    1.0851258 *  2.1323709 *  3.4945000    4.5448572  
  20 H       2.1819290 *  2.1174807 *  1.0964862 *  3.9426321    5.1709707  

                6 H          7 C          8 C          9 C         10 C     

   1 C       3.8749883    2.8510166 *  3.6906669    3.1262718    2.7914357 *
   2 C       2.2023453 *  1.4998127 *  2.7639842 *  2.9883475 *  2.6284357 *
   3 C       3.3904300    2.4352909 *  3.1944875    2.7362205 *  2.0025974 *
   4 C       2.1956327 *  1.5202338 *  2.7796150 *  3.2390290    3.7428123  
   5 O       2.6647988 *  2.4161916 *  3.4048598    4.0780638    4.8149560  
   6 H       0.0000000    1.0916551 *  2.5306072 *  3.6750820    4.0767137  
   7 C       1.0916551 *  0.0000000    1.9983253 *  2.8047268 *  3.1446753  
   8 C       2.5306072 *  1.9983253 *  0.0000000    1.5030934 *  2.4857055 *
   9 C       3.6750820    2.8047268 *  1.5030934 *  0.0000000    1.3583848 *
  10 C       4.0767137    3.1446753    2.4857055 *  1.3583848 *  0.0000000  
  11 H       5.0871164    4.0959801    3.4704346    2.1062136 *  1.0930594 *
  12 H       4.0113739    3.2641993    2.7412105 *  2.1070866 *  1.0979668 *
  13 H       4.3961838    3.4998505    2.2227849 *  1.0873117 *  2.1200638 *
  14 H       2.7238109 *  2.5106846 *  1.0932711 *  2.1893140 *  2.8583753 *
  15 H       2.8456261 *  2.5016947 *  1.0926277 *  2.1840678 *  3.4034045  
  16 C       3.4818099    2.5746752 *  3.5710621    3.3801096    3.5606127  
  17 H       4.3601569    3.5459485    4.4332343    4.1872324    4.4579566  
  18 H       4.9543783    3.9349215    4.6371444    3.8287621    3.3119003  
  19 H       2.5312614 *  2.2347861 *  3.2895394    3.6358256    3.1233636  
  20 H       4.3034755    3.4402948    4.0901643    3.4635631    2.3685424 *

               11 H         12 H         13 H         14 H         15 H     

   1 C       2.9846485 *  3.4306892    3.3530355    4.4882993    4.2427999  
   2 C       3.4726355    2.4864658 *  3.8454073    3.0439905    3.6202515  
   3 C       2.4912012 *  2.2199445 *  3.4032741    3.6827867    4.0526844  
   4 C       4.4523541    4.2295369    3.4968455    3.6462151    2.8511552 *
   5 O       5.5220756    5.3282482    4.1571400    4.2585561    3.0774264  
   6 H       5.0871164    4.0113739    4.3961838    2.7238109 *  2.8456261 *
   7 C       4.0959801    3.2641993    3.4998505    2.5106846 *  2.5016947 *
   8 C       3.4704346    2.7412105 *  2.2227849 *  1.0932711 *  1.0926277 *
   9 C       2.1062136 *  2.1070866 *  1.0873117 *  2.1893140 *  2.1840678 *
  10 C       1.0930594 *  1.0979668 *  2.1200638 *  2.8583753 *  3.4034045  
  11 H       0.0000000    1.8655937 *  2.4224783 *  3.8973515    4.2754356  
  12 H       1.8655937 *  0.0000000    3.0639013    2.7046052 *  3.7997126  
  13 H       2.4224783 *  3.0639013    0.0000000    3.0554319    2.4418724 *
  14 H       3.8973515    2.7046052 *  3.0554319    0.0000000    1.8261006 *
  15 H       4.2754356    3.7997126    2.4418724 *  1.8261006 *  0.0000000  
  16 C       3.9306798    4.2517075    3.4309332    4.5133465    3.7981247  
  17 H       4.6774922    5.2438727    3.9974419    5.4393511    4.4704661  
  18 H       3.1402593    4.0007761    3.8934282    5.4297874    5.1828668  
  19 H       3.9848238    2.5786055 *  4.6176827    3.2051856    4.2244414  
  20 H       2.5401046 *  2.3355896 *  4.1342781    4.4190554    5.0272598  

               16 C         17 H         18 H         19 H         20 H     

   1 C       1.3412049 *  2.1366890 *  1.0866303 *  3.4021617    2.1819290 *
   2 C       2.8441977 *  3.9155800    3.3516154    1.0851258 *  2.1174807 *
   3 C       2.4794517 *  3.4799480    2.1912265 *  2.1323709 *  1.0964862 *
   4 C       1.4874394 *  2.2067869 *  3.4394843    3.4945000    3.9426321  
   5 O       2.3512757 *  2.5969041 *  4.4509429    4.5448572    5.1709707  
   6 H       3.4818099    4.3601569    4.9543783    2.5312614 *  4.3034755  
   7 C       2.5746752 *  3.5459485    3.9349215    2.2347861 *  3.4402948  
   8 C       3.5710621    4.4332343    4.6371444    3.2895394    4.0901643  
   9 C       3.3801096    4.1872324    3.8287621    3.6358256    3.4635631  
  10 C       3.5606127    4.4579566    3.3119003    3.1233636    2.3685424 *
  11 H       3.9306798    4.6774922    3.1402593    3.9848238    2.5401046 *
  12 H       4.2517075    5.2438727    4.0007761    2.5786055 *  2.3355896 *
  13 H       3.4309332    3.9974419    3.8934282    4.6176827    4.1342781  
  14 H       4.5133465    5.4393511    5.4297874    3.2051856    4.4190554  
  15 H       3.7981247    4.4704661    5.1828668    4.2244414    5.0272598  
  16 C       0.0000000    1.0813014 *  2.1095790 *  3.9185396    3.3996292  
  17 H       1.0813014 *  0.0000000    2.4853397 *  4.9821543    4.3044572  
  18 H       2.1095790 *  2.4853397 *  0.0000000    4.2380153    2.4391769 *
  19 H       3.9185396    4.9821543    4.2380153    0.0000000    2.4579190 *
  20 H       3.3996292    4.3044572    2.4391769 *  2.4579190 *  0.0000000  

  * ... LESS THAN  3.000


     ATOMIC BASIS SET
     ----------------
 THE CONTRACTED PRIMITIVE FUNCTIONS HAVE BEEN UNNORMALIZED
 THE CONTRACTED BASIS FUNCTIONS ARE NOW NORMALIZED TO UNITY

  SHELL TYPE  PRIMITIVE        EXPONENT          CONTRACTION COEFFICIENT(S)

 C         

      1   S       1            71.6168373    0.154328967295
      1   S       2            13.0450963    0.535328142282
      1   S       3             3.5305122    0.444634542185

      2   L       4             2.9412494   -0.099967229187    0.155916274999
      2   L       5             0.6834831    0.399512826089    0.607683718598
      2   L       6             0.2222899    0.700115468880    0.391957393099

 C         

      3   S       7            71.6168373    0.154328967295
      3   S       8            13.0450963    0.535328142282
      3   S       9             3.5305122    0.444634542185

      4   L      10             2.9412494   -0.099967229187    0.155916274999
      4   L      11             0.6834831    0.399512826089    0.607683718598
      4   L      12             0.2222899    0.700115468880    0.391957393099

 C         

      5   S      13            71.6168373    0.154328967295
      5   S      14            13.0450963    0.535328142282
      5   S      15             3.5305122    0.444634542185

      6   L      16             2.9412494   -0.099967229187    0.155916274999
      6   L      17             0.6834831    0.399512826089    0.607683718598
      6   L      18             0.2222899    0.700115468880    0.391957393099

 C         

      7   S      19            71.6168373    0.154328967295
      7   S      20            13.0450963    0.535328142282
      7   S      21             3.5305122    0.444634542185

      8   L      22             2.9412494   -0.099967229187    0.155916274999
      8   L      23             0.6834831    0.399512826089    0.607683718598
      8   L      24             0.2222899    0.700115468880    0.391957393099

 O         

      9   S      25           130.7093214    0.154328967295
      9   S      26            23.8088661    0.535328142282
      9   S      27             6.4436083    0.444634542185

     10   L      28             5.0331513   -0.099967229187    0.155916274999
     10   L      29             1.1695961    0.399512826089    0.607683718598
     10   L      30             0.3803890    0.700115468880    0.391957393099

 H         

     11   S      31             3.4252509    0.154328967295
     11   S      32             0.6239137    0.535328142282
     11   S      33             0.1688554    0.444634542185

 C         

     12   S      34            71.6168373    0.154328967295
     12   S      35            13.0450963    0.535328142282
     12   S      36             3.5305122    0.444634542185

     13   L      37             2.9412494   -0.099967229187    0.155916274999
     13   L      38             0.6834831    0.399512826089    0.607683718598
     13   L      39             0.2222899    0.700115468880    0.391957393099

 C         

     14   S      40            71.6168373    0.154328967295
     14   S      41            13.0450963    0.535328142282
     14   S      42             3.5305122    0.444634542185

     15   L      43             2.9412494   -0.099967229187    0.155916274999
     15   L      44             0.6834831    0.399512826089    0.607683718598
     15   L      45             0.2222899    0.700115468880    0.391957393099

 C         

     16   S      46            71.6168373    0.154328967295
     16   S      47            13.0450963    0.535328142282
     16   S      48             3.5305122    0.444634542185

     17   L      49             2.9412494   -0.099967229187    0.155916274999
     17   L      50             0.6834831    0.399512826089    0.607683718598
     17   L      51             0.2222899    0.700115468880    0.391957393099

 C         

     18   S      52            71.6168373    0.154328967295
     18   S      53            13.0450963    0.535328142282
     18   S      54             3.5305122    0.444634542185

     19   L      55             2.9412494   -0.099967229187    0.155916274999
     19   L      56             0.6834831    0.399512826089    0.607683718598
     19   L      57             0.2222899    0.700115468880    0.391957393099

 H         

     20   S      58             3.4252509    0.154328967295
     20   S      59             0.6239137    0.535328142282
     20   S      60             0.1688554    0.444634542185

 H         

     21   S      61             3.4252509    0.154328967295
     21   S      62             0.6239137    0.535328142282
     21   S      63             0.1688554    0.444634542185

 H         

     22   S      64             3.4252509    0.154328967295
     22   S      65             0.6239137    0.535328142282
     22   S      66             0.1688554    0.444634542185

 H         

     23   S      67             3.4252509    0.154328967295
     23   S      68             0.6239137    0.535328142282
     23   S      69             0.1688554    0.444634542185

 H         

     24   S      70             3.4252509    0.154328967295
     24   S      71             0.6239137    0.535328142282
     24   S      72             0.1688554    0.444634542185

 C         

     25   S      73            71.6168373    0.154328967295
     25   S      74            13.0450963    0.535328142282
     25   S      75             3.5305122    0.444634542185

     26   L      76             2.9412494   -0.099967229187    0.155916274999
     26   L      77             0.6834831    0.399512826089    0.607683718598
     26   L      78             0.2222899    0.700115468880    0.391957393099

 H         

     27   S      79             3.4252509    0.154328967295
     27   S      80             0.6239137    0.535328142282
     27   S      81             0.1688554    0.444634542185

 H         

     28   S      82             3.4252509    0.154328967295
     28   S      83             0.6239137    0.535328142282
     28   S      84             0.1688554    0.444634542185

 H         

     29   S      85             3.4252509    0.154328967295
     29   S      86             0.6239137    0.535328142282
     29   S      87             0.1688554    0.444634542185

 H         

     30   S      88             3.4252509    0.154328967295
     30   S      89             0.6239137    0.535328142282
     30   S      90             0.1688554    0.444634542185

 TOTAL NUMBER OF BASIS SET SHELLS             =   30
 NUMBER OF CARTESIAN GAUSSIAN BASIS FUNCTIONS =   60
 NUMBER OF ELECTRONS                          =   72
 CHARGE OF MOLECULE                           =    0
 SPIN MULTIPLICITY                            =    1
 NUMBER OF OCCUPIED ORBITALS (ALPHA)          =   36
 NUMBER OF OCCUPIED ORBITALS (BETA )          =   36
 TOTAL NUMBER OF ATOMS                        =   20
 THE NUCLEAR REPULSION ENERGY IS      507.9315679684

     $CONTRL OPTIONS
     ---------------
 SCFTYP=RHF          RUNTYP=OPTIMIZE     EXETYP=RUN     
 MPLEVL=       0     CITYP =NONE         CCTYP =NONE         VBTYP =NONE    
 DFTTYP=NONE         TDDFT =NONE    
 MULT  =       1     ICHARG=       0     NZVAR =       1     COORD =UNIQUE  
 PP    =NONE         RELWFN=NONE         LOCAL =NONE         NUMGRD=       F
 ISPHER=      -1     NOSYM =       0     MAXIT =      30     UNITS =ANGS    
 PLTORB=       F     MOLPLT=       F     AIMPAC=       F     FRIEND=        
 NPRINT=       7     IREST =       0     GEOM  =INPUT   
 NORMF =       0     NORMP =       0     ITOL  =      20     ICUT  =       9
 INTTYP=BEST         GRDTYP=BEST         QMTTOL= 1.0E-06

     $SYSTEM OPTIONS
     ---------------
  REPLICATED MEMORY=     1000000 WORDS (ON EVERY NODE).
 DISTRIBUTED MEMDDI=           0 MILLION WORDS IN AGGREGATE,
 MEMDDI DISTRIBUTED OVER   1 PROCESSORS IS           0 WORDS/PROCESSOR.
 TOTAL MEMORY REQUESTED ON EACH PROCESSOR=     1000000 WORDS.
 TIMLIM=      525600.00 MINUTES, OR     365.0 DAYS.
 PARALL= F  BALTYP=  DLB     KDIAG=    0  COREFL= F
 MXSEQ2=     300 MXSEQ3=     150  mem10=         0

          ----------------
          PROPERTIES INPUT
          ----------------

     MOMENTS            FIELD           POTENTIAL          DENSITY
 IEMOM =       1   IEFLD =       0   IEPOT =       0   IEDEN =       0
 WHERE =COMASS     WHERE =NUCLEI     WHERE =NUCLEI     WHERE =NUCLEI  
 OUTPUT=BOTH       OUTPUT=BOTH       OUTPUT=BOTH       OUTPUT=BOTH    
 IEMINT=       0   IEFINT=       0                     IEDINT=       0
                                                       MORB  =       0
          EXTRAPOLATION IN EFFECT
          SOSCF IN EFFECT
 ORBITAL PRINTING OPTION: NPREO=     1    60     2     1

     -------------------------------
     INTEGRAL TRANSFORMATION OPTIONS
     -------------------------------
     NWORD  =            0
     CUTOFF = 1.0E-09     MPTRAN =       0
     DIRTRF =       F     AOINTS =DUP     

          ----------------------
          INTEGRAL INPUT OPTIONS
          ----------------------
 NOPK  =       1 NORDER=       0 SCHWRZ=       T


 -----------------------------------------------
  STATISTICS ON AUTOMATIC COORDINATE GENERATION 
 -----------------------------------------------
  NUMBER OF USER SPECIFIED BONDS                             2
  NUMBER OF BONDS                                           21
  NUMBER OF ANGLES                                          39
  NUMBER OF TORSIONS                                        62
  NUMBER OF EXTRA COORD.                                     0
  NUMBER OF EXTRA COORD. FOR CONSTRAINTS                     0
  NUMBER OF CONSTRAINED COORD.                               2

  TOTAL NUMBER OF PRIMITIVES                               122
 -----------------------------------------------

   --- ENCODED Z MATRIX ---
 COORD  TYPE   I   J   K   L   M   N
    1      1    3  10
    2      1    7   8
    3      1    1   3
    4      1    1  16
    5      1    1  18
    6      1    2  19
    7      1    2   3
    8      1    2   7
    9      1    3  20
   10      1    4  16
   11      1    4   5
   12      1    4   7
   13      1    6   7
   14      1    8   9
   15      1    8  15
   16      1    8  14
   17      1    9  13
   18      1    9  10
   19      1   10  12
   20      1   10  11
   21      1   16  17
   22      2    1  16  17
   23      2    1   3  20
   24      2    1   3   2
   25      2    1   3  10
   26      2    1  16   4
   27      2    2   7   4
   28      2    2   3  20
   29      2    2   7   8
   30      2    2   3  10
   31      2    2   7   6
   32      2    3   1  16
   33      2    3  10   9
   34      2    3   2   7
   35      2    3  10  11
   36      2    3   2  19
   37      2    3   1  18
   38      2    3  10  12
   39      2    4   7   8
   40      2    4   7   6
   41      2    4  16  17
   42      2    5   4   7
   43      2    5   4  16
   44      2    6   7   8
   45      2    7   8  14
   46      2    7   8  15
   47      2    7   8   9
   48      2    7   4  16
   49      2    7   2  19
   50      2    8   9  10
   51      2    8   9  13
   52      2    9   8  15
   53      2    9  10  11
   54      2    9  10  12
   55      2    9   8  14
   56      2   10   9  13
   57      2   10   3  20
   58      2   11  10  12
   59      2   14   8  15
   60      2   16   1  18
   61      3    1   3   2  19
   62      3    1   3  10  11
   63      3    1   3  10  12
   64      3    1   3  10   9
   65      3    1  16   4   7
   66      3    1  16   4   5
   67      3    1   3   2   7
   68      3    2   3  10   9
   69      3    2   7   8  14
   70      3    2   7   8  15
   71      3    2   3   1  18
   72      3    2   7   8   9
   73      3    2   3   1  16
   74      3    2   7   4   5
   75      3    2   7   4  16
   76      3    2   3  10  11
   77      3    2   3  10  12
   78      3    3   1  16   4
   79      3    3   2   7   8
   80      3    3  10   9  13
   81      3    3  10   9   8
   82      3    3   2   7   4
   83      3    3   1  16  17
   84      3    3   2   7   6
   85      3    4  16   1  18
   86      3    4   7   2  19
   87      3    4   7   8  14
   88      3    4   7   8  15
   89      3    4   7   8   9
   90      3    5   4  16  17
   91      3    5   4   7   6
   92      3    5   4   7   8
   93      3    6   7   8  14
   94      3    6   7   8  15
   95      3    6   7   8   9
   96      3    6   7   4  16
   97      3    6   7   2  19
   98      3    7   2   3  10
   99      3    7   2   3  20
  100      3    7   8   9  10
  101      3    7   8   9  13
  102      3    7   4  16  17
  103      3    8   9  10  11
  104      3    8   9  10  12
  105      3    8   7   2  19
  106      3    8   7   4  16
  107      3    9  10   3  20
  108      3   10   3   2  19
  109      3   10   9   8  14
  110      3   10   9   8  15
  111      3   10   3   1  18
  112      3   10   3   1  16
  113      3   11  10   9  13
  114      3   11  10   3  20
  115      3   12  10   3  20
  116      3   12  10   9  13
  117      3   13   9   8  14
  118      3   13   9   8  15
  119      3   16   1   3  20
  120      3   17  16   1  18
  121      3   18   1   3  20
  122      3   19   2   3  20

          INDEP./SYM. INTERNAL COORDINATES
          --------------------------------
 CRD  1=   1.0000 (  1)
 CRD  2=   1.0000 (  2)
 CRD  3=   0.2295 (  3)  0.1451 (  5) -0.1309 ( 11) -0.2336 ( 12)  0.1263 ( 15)
           0.1464 ( 18) -0.1059 ( 20)  0.1034 ( 24) -0.1010 ( 27)  0.2073 ( 29)
          -0.2073 ( 30) -0.1960 ( 32) -0.1205 ( 35)  0.1939 ( 37) -0.2821 ( 42)
          -0.1339 ( 44)  0.1144 ( 46) -0.1646 ( 47)  0.2015 ( 48)  0.1212 ( 57)
           0.1257 ( 68)  0.1616 ( 72) -0.1399 ( 80) -0.1540 ( 81)  0.1145 ( 89)
          -0.1465 ( 92) -0.1403 (100) -0.1343 (101) -0.1519 (106) -0.1416 (111)
          -0.1318 (112)
 CRD  4=   0.1031 (  3) -0.1685 (  4)  0.2650 (  7)  0.3240 (  8) -0.2125 ( 10)
           0.1444 ( 12)  0.1756 ( 14)  0.2004 ( 18) -0.1727 ( 33)  0.1033 ( 37)
           0.1133 ( 38)  0.1960 ( 42) -0.2657 ( 43)  0.1000 ( 45) -0.1754 ( 47)
           0.3208 ( 50) -0.1663 ( 51) -0.1522 ( 56) -0.1873 ( 60)  0.1160 ( 69)
          -0.1345 ( 77)
 CRD  5=  -0.1015 (  3) -0.1406 (  7)  0.1412 ( 14) -0.1909 ( 18) -0.1554 ( 35)
          -0.1210 ( 36)  0.1320 ( 45)  0.1158 ( 46)  0.1079 ( 49)  0.2377 ( 51)
          -0.1332 ( 55) -0.2484 ( 56) -0.1336 ( 65) -0.1007 ( 66)  0.1254 ( 68)
           0.1625 ( 71)  0.1302 ( 72)  0.1953 ( 73)  0.1542 ( 74)  0.1940 ( 75)
          -0.1011 ( 83)  0.1399 ( 92)  0.1072 ( 95)  0.1050 ( 97) -0.1231 (102)
           0.1240 (103) -0.1371 (104)  0.1797 (106) -0.1071 (109)  0.1341 (111)
           0.1669 (112)  0.1630 (113)  0.1439 (118)  0.1091 (122)
 CRD  6=   0.3050 (  3) -0.1638 (  7) -0.1287 (  8) -0.1681 ( 10)  0.2867 ( 12)
          -0.3435 ( 14) -0.1234 ( 15) -0.2340 ( 18) -0.1349 ( 20)  0.1268 ( 22)
          -0.1019 ( 28)  0.1721 ( 37)  0.1466 ( 38)  0.2790 ( 42) -0.3322 ( 43)
           0.1230 ( 45) -0.1689 ( 60)  0.1229 ( 77) -0.1169 ( 80) -0.1166 ( 81)
 CRD  7=   0.2290 (  3)  0.2002 (  4)  0.4119 ( 10)  0.1331 ( 11)  0.2786 ( 12)
           0.1178 ( 14)  0.2588 ( 21) -0.1668 ( 26) -0.1425 ( 33)  0.2152 ( 38)
           0.2466 ( 41) -0.1856 ( 42)  0.1749 ( 43)  0.2028 ( 45) -0.1290 ( 46)
          -0.1049 ( 47)  0.1355 ( 52)  0.1398 ( 53) -0.1280 ( 80) -0.1392 ( 81)
           0.1637 (100)  0.1584 (101)
 CRD  8=   0.1065 (  6)  0.1271 (  7)  0.1301 ( 17) -0.1306 ( 25)  0.1314 ( 29)
           0.1362 ( 30) -0.1190 ( 31) -0.1140 ( 34)  0.1280 ( 35)  0.1456 ( 38)
          -0.1014 ( 42)  0.1788 ( 44)  0.1919 ( 45)  0.1888 ( 46) -0.1598 ( 52)
          -0.1103 ( 53)  0.1343 ( 57)  0.1286 ( 61)  0.1225 ( 67)  0.1520 ( 74)
           0.1329 ( 75) -0.1904 ( 79) -0.1544 ( 82) -0.1806 ( 86) -0.1046 ( 96)
           0.1942 ( 98) -0.1129 (103)  0.1551 (104) -0.2166 (105)  0.2003 (108)
          -0.1782 (109)  0.1590 (110)  0.1753 (116) -0.2039 (117)  0.1332 (118)
           0.1048 (119)
 CRD  9=  -0.1845 (  3)  0.1519 (  4) -0.1123 (  5) -0.3319 (  7)  0.2956 (  8)
           0.1665 ( 11)  0.1275 ( 12)  0.1543 ( 18)  0.1306 ( 32) -0.3830 ( 36)
          -0.2586 ( 37) -0.1393 ( 48)  0.3700 ( 49)  0.1276 ( 60)  0.1375 ( 61)
          -0.1096 ( 71)  0.1049 ( 89)
 CRD 10=   0.4114 (  4)  0.1450 (  5) -0.1379 ( 10)  0.1755 ( 14)  0.2213 ( 18)
           0.3791 ( 22) -0.1282 ( 32) -0.1129 ( 35) -0.1659 ( 37) -0.4143 ( 41)
           0.1499 ( 42) -0.1768 ( 43) -0.1280 ( 49)  0.1379 ( 53)  0.1279 ( 56)
           0.2936 ( 60)
 CRD 11=   0.2337 (  4)  0.1799 (  6)  0.1906 (  7)  0.2364 (  8) -0.3777 ( 14)
          -0.1986 ( 17) -0.2119 ( 18)  0.1588 ( 21)  0.1779 ( 22) -0.1322 ( 26)
          -0.1493 ( 34) -0.2319 ( 37) -0.1017 ( 38) -0.1513 ( 42)  0.1346 ( 46)
           0.1555 ( 50) -0.2007 ( 51) -0.1721 ( 52)  0.1503 ( 60) -0.1059 ( 85)
           0.1522 ( 88)
 CRD 12=   0.1800 (  3)  0.1500 (  4)  0.1123 (  5)  0.2432 (  6)  0.1873 (  7)
           0.1596 (  8)  0.1611 ( 10)  0.2635 ( 12)  0.1399 ( 13)  0.2835 ( 14)
           0.1319 ( 17) -0.1077 ( 19)  0.1365 ( 21)  0.1663 ( 33) -0.1875 ( 38)
          -0.1036 ( 43) -0.1975 ( 45) -0.1131 ( 50)  0.3206 ( 51) -0.1502 ( 53)
          -0.2102 ( 56)  0.1475 ( 80)  0.1003 ( 81) -0.1321 (100)
 CRD 13=   0.2089 (  3)  0.1024 (  6)  0.1845 (  8)  0.1395 (  9)  0.1253 ( 10)
           0.1867 ( 11) -0.1076 ( 16)  0.1265 ( 17)  0.3369 ( 18) -0.1785 ( 22)
           0.1239 ( 23)  0.1482 ( 26) -0.1019 ( 35)  0.2559 ( 37) -0.1195 ( 38)
           0.1432 ( 47) -0.1344 ( 48) -0.1074 ( 50) -0.2215 ( 51)  0.1104 ( 53)
           0.3280 ( 56) -0.2041 ( 60)  0.1400 ( 62)  0.1001 ( 76) -0.1019 (101)
           0.1088 (103)
 CRD 14=  -0.2631 (  5)  0.1039 (  6) -0.1993 (  7) -0.1608 (  8) -0.1188 (  9)
          -0.1521 ( 10) -0.2039 ( 11) -0.1535 ( 13)  0.1001 ( 14)  0.2103 ( 18)
           0.2533 ( 21)  0.1608 ( 22) -0.3346 ( 26)  0.2260 ( 32) -0.1185 ( 34)
          -0.1173 ( 37) -0.1198 ( 38)  0.1741 ( 41) -0.1118 ( 42) -0.1187 ( 45)
           0.1738 ( 48)  0.1015 ( 56) -0.1090 ( 60)  0.1321 ( 81) -0.1087 (100)
           0.1328 (103)
 CRD 15=  -0.1629 (  3)  0.1892 (  7) -0.1881 (  8) -0.1675 (  9)  0.1036 ( 10)
           0.1504 ( 12)  0.1798 ( 13) -0.1712 ( 14) -0.1719 ( 16)  0.2284 ( 18)
           0.1434 ( 19) -0.1534 ( 23)  0.1358 ( 35) -0.1423 ( 37)  0.1664 ( 40)
           0.1075 ( 42) -0.1581 ( 43)  0.1466 ( 54) -0.1672 ( 55)  0.1708 ( 60)
          -0.1319 ( 63)  0.1238 ( 72) -0.1336 ( 87)  0.1565 ( 95) -0.1060 ( 97)
          -0.1010 (100) -0.1231 (101) -0.1119 (103) -0.1069 (105)  0.1390 (107)
          -0.1011 (110) -0.1137 (113) -0.1137 (117) -0.1232 (118)
 CRD 16=  -0.1622 (  5)  0.2793 (  9)  0.2085 ( 11) -0.3208 ( 13)  0.1102 ( 15)
          -0.1146 ( 20) -0.1151 ( 24)  0.1431 ( 27)  0.1015 ( 28) -0.1573 ( 31)
           0.1173 ( 32)  0.2365 ( 36) -0.1468 ( 38)  0.1548 ( 45) -0.1584 ( 48)
          -0.2315 ( 49)  0.1407 ( 52) -0.1213 ( 53)  0.1248 ( 54) -0.1404 ( 55)
           0.1237 ( 64) -0.1499 ( 69) -0.1442 ( 70) -0.1170 ( 76) -0.1220 ( 77)
           0.1527 ( 89)  0.1115 ( 95) -0.1180 ( 96) -0.1123 (104) -0.1328 (106)
          -0.1003 (111) -0.1247 (112)
 CRD 17=   0.1551 (  6)  0.1314 (  7)  0.1208 (  8) -0.1609 ( 15)  0.1278 ( 16)
           0.3322 ( 17)  0.1719 ( 19) -0.1683 ( 20) -0.1942 ( 35) -0.2259 ( 46)
          -0.1330 ( 50) -0.1119 ( 57)  0.1014 ( 64)  0.1751 ( 65)  0.1712 ( 66)
           0.1306 ( 67)  0.1159 ( 68) -0.1662 ( 78) -0.1102 ( 80) -0.1105 ( 82)
          -0.1101 ( 83) -0.1635 ( 85)  0.1184 ( 90) -0.1084 ( 94) -0.1459 ( 95)
           0.1366 ( 99)  0.1081 (101)  0.1223 (102)  0.1550 (103)  0.1678 (107)
          -0.1651 (110)  0.1038 (113)  0.1019 (114) -0.1105 (118) -0.1074 (120)
           0.1017 (122)
 CRD 18=  -0.2023 (  5) -0.3147 (  6)  0.3348 (  9) -0.2642 ( 11)  0.4424 ( 13)
           0.1858 ( 21)  0.1078 ( 23) -0.1263 ( 24)  0.1322 ( 34) -0.1421 ( 38)
           0.1207 ( 45)  0.1146 ( 48) -0.1040 ( 55) -0.1254 ( 74) -0.1206 ( 75)
          -0.1151 ( 87) -0.1365 (104) -0.1028 (109) -0.1201 (116) -0.1138 (117)
 CRD 19=  -0.2241 (  5) -0.1499 (  6)  0.3822 (  9)  0.1347 ( 17)  0.1249 ( 19)
          -0.1369 ( 20)  0.2127 ( 38) -0.1234 ( 44) -0.2222 ( 45)  0.1480 ( 55)
           0.1278 ( 57)  0.1022 ( 63)  0.1034 ( 64)  0.1232 ( 71)  0.1345 ( 73)
           0.1066 ( 75) -0.1247 ( 84)  0.1340 ( 91)  0.1681 ( 96) -0.1250 ( 97)
           0.1976 (104)  0.1101 (107)  0.1995 (109)  0.1089 (115)  0.2001 (116)
           0.1950 (117)  0.1129 (119)  0.1016 (121) -0.1101 (122)
 CRD 20=  -0.1315 (  9)  0.1853 ( 13)  0.2274 ( 15) -0.1983 ( 16)  0.2077 ( 19)
          -0.1599 ( 20) -0.1070 ( 31) -0.1447 ( 35)  0.1397 ( 38) -0.1105 ( 39)
           0.1315 ( 44) -0.1276 ( 45)  0.2118 ( 46) -0.1173 ( 57)  0.1069 ( 65)
          -0.1156 ( 73) -0.1137 ( 74) -0.1466 ( 75) -0.1913 ( 91)  0.1166 ( 95)
          -0.2242 ( 96)  0.1028 (102)  0.1573 (103)  0.1198 (104) -0.1145 (106)
           0.1131 (107)  0.1177 (109)  0.2060 (110)  0.1652 (113)  0.1277 (116)
           0.1216 (117)  0.2099 (118) -0.1795 (119) -0.1506 (121)
 CRD 21=   0.2331 ( 15) -0.2936 ( 16) -0.3687 ( 17) -0.3109 ( 19)  0.2068 ( 20)
           0.1377 ( 52)  0.1474 ( 53) -0.1421 ( 54)  0.1049 ( 62)  0.1156 ( 63)
           0.1234 ( 65)  0.1203 ( 66)  0.1214 ( 67)  0.1022 ( 77) -0.1469 ( 78)
          -0.1220 ( 79) -0.1327 ( 82) -0.1232 ( 83) -0.1902 ( 84) -0.1336 ( 85)
          -0.1382 ( 97)  0.1157 ( 98)  0.1464 ( 99)  0.1008 (102) -0.1099 (120)
 CRD 22=  -0.2305 (  6)  0.1212 ( 16)  0.1670 ( 17)  0.2462 ( 19)  0.1693 ( 20)
           0.1006 ( 23)  0.2054 ( 35) -0.1137 ( 38) -0.1017 ( 44) -0.1009 ( 45)
           0.1592 ( 46) -0.1157 ( 53) -0.1014 ( 57)  0.1079 ( 65)  0.1116 ( 66)
          -0.1378 ( 78) -0.1179 ( 83) -0.1731 ( 84) -0.1356 ( 85) -0.1124 ( 97)
           0.1809 ( 99) -0.2286 (103) -0.2125 (104)  0.1963 (109)  0.2065 (110)
          -0.1561 (113) -0.1253 (114) -0.1157 (115) -0.1400 (116)  0.1274 (117)
           0.1376 (118) -0.1156 (120)  0.1194 (122)
 CRD 23=   0.1704 (  6)  0.1000 (  8) -0.1791 ( 11) -0.2544 ( 16)  0.5563 ( 19)
           0.4530 ( 20)  0.1131 ( 52)  0.1868 ( 58) -0.1081 ( 62) -0.1299 ( 69)
          -0.1593 ( 70) -0.1170 ( 76) -0.1255 ( 87) -0.1549 ( 88) -0.1391 ( 93)
          -0.1685 ( 94) -0.1069 (114)
 CRD 24=   0.1636 (  5) -0.2637 ( 15) -0.5680 ( 16) -0.3819 ( 20)  0.1280 ( 52)
           0.1487 ( 54) -0.1077 ( 58) -0.1525 ( 59) -0.1923 ( 63) -0.1645 ( 70)
          -0.1938 ( 77) -0.1595 ( 88) -0.1656 ( 94)  0.1014 (110) -0.1136 (114)
          -0.2223 (115)
 CRD 25=  -0.1662 ( 11)  0.6445 ( 15)  0.2500 ( 16) -0.3109 ( 20) -0.1437 ( 55)
           0.1750 ( 59) -0.1089 ( 63) -0.2077 ( 69) -0.1109 ( 77) -0.2106 ( 87)
          -0.2141 ( 93)  0.1559 (109) -0.1194 (115)  0.1380 (117)
 CRD 26=   0.1858 (  5) -0.3215 (  6)  0.1234 ( 11)  0.1141 ( 16) -0.2151 ( 17)
           0.2767 ( 19) -0.1165 ( 35) -0.1250 ( 46) -0.1074 ( 53) -0.1946 ( 62)
          -0.1121 ( 63)  0.1062 ( 70) -0.1900 ( 76) -0.1075 ( 77)  0.1418 ( 81)
           0.1108 ( 88)  0.1029 ( 94) -0.1326 (100)  0.3004 (103)  0.1857 (104)
          -0.1430 (109) -0.2675 (110)  0.2047 (113) -0.2094 (114) -0.1269 (115)
          -0.1747 (118)
 CRD 27=   0.1756 ( 13)  0.1262 ( 44)  0.1821 ( 57)  0.1428 ( 65)  0.1053 ( 66)
          -0.1374 ( 67)  0.1293 ( 71)  0.1766 ( 73) -0.1047 ( 75) -0.1803 ( 78)
           0.1124 ( 82) -0.3042 ( 83)  0.1931 ( 84) -0.1311 ( 85)  0.2223 ( 90)
          -0.1462 ( 91) -0.1865 ( 96)  0.1480 ( 97) -0.2386 ( 99)  0.2597 (102)
           0.1183 (112)  0.2869 (119) -0.2550 (120)  0.2396 (121) -0.1951 (122)
 CRD 28=   0.4088 (  5)  0.2728 (  9) -0.2799 ( 11) -0.1565 ( 12) -0.3833 ( 13)
           0.2207 ( 21) -0.2868 ( 22) -0.1195 ( 36)  0.2823 ( 41)  0.2428 ( 42)
          -0.2445 ( 43)  0.1157 ( 44)  0.1124 ( 49)  0.1063 ( 60)
 CRD 29=   0.2221 (  3)  0.1363 (  6) -0.1016 (  8)  0.3534 (  9) -0.1187 ( 10)
          -0.2299 ( 11)  0.2021 ( 12) -0.6270 ( 21) -0.2620 ( 37)  0.1039 ( 41)
          -0.1332 ( 42)  0.2340 ( 60)
 CRD 30=  -0.2307 (  6) -0.1004 (  9) -0.1715 ( 13)  0.1069 ( 38)  0.1195 ( 45)
          -0.1801 ( 61)  0.2466 ( 66)  0.2521 ( 71) -0.2494 ( 74)  0.2307 ( 83)
          -0.2498 ( 85)  0.1623 ( 86) -0.1427 ( 91) -0.2456 ( 92) -0.2283 (102)
           0.1809 (104)  0.1293 (105) -0.1283 (108) -0.1723 (109)  0.2344 (111)
           0.1930 (116) -0.1780 (117)  0.1431 (121)
 CRD 31=   0.2803 (  4)  0.2417 (  5) -0.2554 (  7)  0.2446 (  8) -0.2724 (  9)
          -0.2683 ( 10) -0.3145 ( 11)  0.3138 ( 13) -0.1999 ( 22)  0.2318 ( 36)
           0.1786 ( 41) -0.2379 ( 49)  0.1031 ( 63)
 CRD 32=  -0.2891 (  5)  0.3077 (  6)  0.1603 ( 10) -0.1562 ( 11) -0.1763 ( 12)
           0.2016 ( 14) -0.1535 ( 15)  0.2165 ( 16) -0.4338 ( 17)  0.2712 ( 19)
          -0.2687 ( 20)  0.1052 ( 21)  0.1205 ( 23)  0.1139 ( 42)  0.1293 ( 56)
           0.1134 ( 93)  0.1023 ( 99)
 CRD 33=  -0.1012 (  6)  0.1001 ( 11)  0.2905 ( 14)  0.2394 ( 15) -0.1177 ( 16)
           0.1310 ( 17) -0.3377 ( 18) -0.1946 ( 20)  0.1221 ( 41) -0.3548 ( 51)
           0.1135 ( 52) -0.1033 ( 54)  0.3292 ( 56)  0.1825 ( 58) -0.1438 ( 59)
           0.1613 ( 63)  0.1350 ( 69)  0.1620 ( 77)  0.1514 ( 87) -0.1082 ( 94)
          -0.1039 (113)  0.1523 (115) -0.1250 (116) -0.1136 (117) -0.1023 (118)
 CRD 34=   0.2770 (  3) -0.2613 (  5) -0.1005 (  7)  0.1475 (  8) -0.1063 (  9)
           0.1918 ( 10)  0.2004 ( 11) -0.2405 ( 12) -0.1272 ( 14)  0.1001 ( 17)
          -0.1193 ( 21) -0.1515 ( 22)  0.1157 ( 23) -0.1277 ( 28)  0.1262 ( 31)
           0.1939 ( 36) -0.2110 ( 37) -0.1216 ( 40)  0.1753 ( 41)  0.1983 ( 42)
          -0.2828 ( 43) -0.1974 ( 49) -0.1117 ( 56)  0.2800 ( 60) -0.1258 ( 93)
          -0.1124 ( 95) -0.1164 (107) -0.1229 (115)
 CRD 35=  -0.2622 (  4)  0.3306 (  5)  0.2241 (  6) -0.1948 (  7) -0.1618 (  8)
           0.2691 (  9) -0.2009 ( 10)  0.4287 ( 11) -0.2012 ( 12)  0.2687 ( 13)
          -0.1694 ( 17)  0.2346 ( 21)  0.1205 ( 83) -0.1061 ( 94) -0.1260 (102)
 CRD 36=   0.1479 (  3) -0.3651 (  6) -0.4349 ( 17)  0.1341 ( 18)  0.1220 ( 19)
          -0.1828 ( 21) -0.1053 ( 23) -0.1056 ( 38) -0.1055 ( 40)  0.1084 ( 44)
          -0.1179 ( 45) -0.1236 ( 50) -0.1203 ( 70) -0.1011 ( 72)  0.1202 ( 76)
           0.1149 ( 84) -0.1065 ( 93) -0.1807 ( 94) -0.1615 ( 95)  0.1488 (107)
          -0.1078 (113)  0.1910 (114)  0.1193 (115) -0.1519 (116)  0.1588 (117)
 CRD 37=  -0.1428 (  5)  0.1958 (  6) -0.1582 ( 11)  0.1622 ( 15) -0.1608 ( 16)
           0.1142 ( 20) -0.1268 ( 35) -0.1318 ( 46)  0.1082 ( 55) -0.1008 ( 63)
           0.1043 ( 67)  0.1260 ( 69) -0.2534 ( 80) -0.1005 ( 82)  0.2281 ( 83)
           0.1373 ( 87) -0.1793 ( 91) -0.1081 ( 92)  0.1097 ( 93)  0.2421 (101)
          -0.2117 (102)  0.1070 (103) -0.1137 (110) -0.1069 (113) -0.2671 (116)
           0.2073 (117)  0.1167 (120)  0.1810 (121)
 CRD 38=   0.1529 (  4) -0.1017 (  8) -0.1925 ( 10)  0.1306 ( 14)  0.1412 ( 19)
          -0.1063 ( 20) -0.1312 ( 28)  0.1776 ( 31) -0.1254 ( 35) -0.1079 ( 38)
           0.1094 ( 41) -0.1601 ( 44)  0.1304 ( 45)  0.1406 ( 46) -0.1679 ( 52)
           0.1383 ( 53)  0.1522 ( 57)  0.1238 ( 66) -0.1480 ( 71) -0.1596 ( 74)
          -0.1414 ( 84)  0.1525 ( 85)  0.1547 ( 90) -0.1137 ( 93) -0.1224 ( 95)
           0.2090 ( 96) -0.1745 ( 97) -0.1728 ( 99)  0.1098 (103) -0.1214 (104)
          -0.1031 (107) -0.1277 (109)  0.1228 (110) -0.1085 (111)  0.1023 (113)
          -0.1290 (116) -0.1010 (117)  0.1495 (118)  0.1957 (119)  0.1179 (120)
          -0.1590 (122)
 CRD 39=  -0.4433 (  4)  0.2008 (  5) -0.2604 (  7)  0.2501 (  8)  0.3598 ( 10)
          -0.2262 ( 11) -0.1124 ( 13)  0.1237 ( 14)  0.2236 ( 22)  0.1052 ( 32)
           0.1862 ( 36) -0.1047 ( 37) -0.2573 ( 41) -0.1360 ( 48) -0.1760 ( 49)
          -0.1130 ( 97) -0.1187 (122)
 CRD 40=   0.1638 (  3) -0.2490 (  4) -0.1392 (  5) -0.1878 (  6)  0.1535 (  7)
          -0.3014 ( 10) -0.1004 ( 11)  0.1646 ( 12)  0.4156 ( 21) -0.2194 ( 22)
           0.3331 ( 26) -0.1801 ( 32) -0.1141 ( 34) -0.1322 ( 37) -0.1130 ( 41)
           0.2349 ( 43) -0.1422 ( 48)  0.3114 ( 60)
 CRD 41=  -0.1390 ( 10)  0.1887 ( 12) -0.1422 ( 13) -0.1173 ( 15) -0.1152 ( 16)
           0.1053 ( 18) -0.1866 ( 20)  0.1179 ( 25) -0.1401 ( 27)  0.1193 ( 34)
           0.1091 ( 39) -0.1188 ( 42) -0.1348 ( 54)  0.1172 ( 58)  0.2064 ( 59)
           0.1832 ( 61)  0.1542 ( 63)  0.1555 ( 70)  0.1391 ( 71)  0.1506 ( 83)
           0.1432 ( 84) -0.1274 ( 85) -0.1602 ( 86) -0.1773 ( 87) -0.1318 ( 90)
          -0.1558 ( 91) -0.1006 ( 93)  0.1009 ( 94) -0.1623 ( 96) -0.1320 (102)
          -0.1204 (105)  0.1225 (108)  0.1202 (109) -0.1464 (118)  0.1691 (121)
           0.1743 (122)
 CRD 42=   0.2797 (  3) -0.1054 (  5) -0.2219 ( 12) -0.1912 ( 15)  0.2421 ( 16)
          -0.1095 ( 18) -0.1271 ( 19) -0.1430 ( 23)  0.1185 ( 28) -0.1184 ( 31)
           0.1260 ( 40) -0.1361 ( 51)  0.1201 ( 52) -0.1333 ( 55)  0.1054 ( 57)
           0.1114 ( 60)  0.1136 ( 61) -0.1421 ( 69) -0.1503 ( 70) -0.1185 ( 76)
          -0.1319 ( 84)  0.2052 ( 95) -0.2061 ( 97) -0.1876 ( 99)  0.1709 (103)
           0.1279 (107)  0.1569 (110)  0.1816 (113)  0.1079 (118)  0.1046 (121)
 CRD 43=  -0.1048 (  8) -0.2342 ( 14)  0.1473 ( 16)  0.1378 ( 18) -0.1142 ( 33)
          -0.1555 ( 40)  0.1467 ( 52)  0.1216 ( 58) -0.1294 ( 59)  0.1121 ( 63)
           0.2112 ( 66) -0.1129 ( 70)  0.1400 ( 73) -0.1610 ( 74)  0.1407 ( 75)
           0.1960 ( 85) -0.1713 ( 86)  0.1426 ( 87)  0.1236 ( 89)  0.2136 ( 90)
          -0.1870 ( 91) -0.1491 ( 92) -0.1870 ( 94)  0.1147 ( 96) -0.1087 ( 98)
          -0.1336 (105)  0.1526 (106)  0.1275 (112)  0.1190 (113) -0.1207 (114)
           0.1248 (119)  0.1950 (120) -0.1023 (121)
 CRD 44=  -0.1009 (  5) -0.1262 (  8)  0.1335 (  9) -0.1266 ( 11)  0.1328 ( 12)
           0.1041 ( 13) -0.1049 ( 14) -0.2246 ( 18)  0.1619 ( 19) -0.1085 ( 23)
          -0.1466 ( 40)  0.1003 ( 42) -0.1062 ( 48)  0.1259 ( 53) -0.2186 ( 58)
           0.2179 ( 61) -0.1674 ( 63)  0.1714 ( 76)  0.1241 ( 79)  0.1885 ( 80)
          -0.1682 ( 86)  0.1301 ( 87) -0.1315 ( 90) -0.1119 ( 94) -0.1026 ( 97)
          -0.1812 (101) -0.1155 (103)  0.1085 (108)  0.1526 (114)  0.1848 (116)
          -0.1930 (117) -0.1477 (118)  0.1399 (122)
 CRD 45=  -0.2002 (  3) -0.1012 (  6)  0.2553 (  8) -0.1322 ( 13) -0.1493 ( 15)
           0.1203 ( 16)  0.1383 ( 17) -0.3090 ( 18)  0.1106 ( 19)  0.1150 ( 20)
           0.1097 ( 23) -0.1887 ( 28)  0.1290 ( 36) -0.1146 ( 42)  0.1317 ( 44)
           0.1129 ( 48)  0.1253 ( 50) -0.1431 ( 51)  0.1748 ( 52)  0.1219 ( 53)
          -0.1990 ( 58)  0.1367 ( 62)  0.1247 ( 72)  0.1909 ( 76) -0.1147 ( 87)
          -0.1550 ( 88) -0.1710 ( 91)  0.1462 ( 95) -0.1026 (107)  0.1063 (109)
          -0.1954 (115)
 CRD 46=  -0.1343 (  3) -0.1379 (  4)  0.1427 (  5) -0.1016 (  6)  0.2961 (  7)
          -0.1096 (  9)  0.1587 ( 10) -0.1181 ( 12)  0.1314 ( 13) -0.2147 ( 14)
           0.1298 ( 17)  0.1316 ( 19) -0.1895 ( 20)  0.1353 ( 23)  0.1107 ( 27)
          -0.1085 ( 28) -0.1161 ( 31)  0.1567 ( 32) -0.1167 ( 37)  0.1357 ( 49)
           0.1263 ( 50)  0.1688 ( 53) -0.1633 ( 54) -0.1505 ( 56)  0.1200 ( 62)
           0.1550 ( 63) -0.1237 ( 68) -0.1406 ( 70)  0.1248 ( 74) -0.1146 ( 85)
          -0.1496 ( 90) -0.2121 (107)  0.1930 (121)
 CRD 47=  -0.2367 (  3) -0.1025 (  8)  0.1017 (  9)  0.2393 ( 12) -0.1356 ( 15)
           0.1832 ( 16) -0.2147 ( 19)  0.1232 ( 25) -0.1346 ( 28)  0.1382 ( 31)
          -0.1111 ( 39)  0.1508 ( 46) -0.1363 ( 53)  0.1079 ( 56)  0.1362 ( 58)
          -0.1642 ( 62)  0.1487 ( 68)  0.1114 ( 72) -0.1033 ( 75) -0.1209 ( 80)
          -0.1062 ( 85) -0.1277 ( 90)  0.1729 ( 91) -0.2098 ( 93) -0.2182 ( 94)
          -0.1001 (100)  0.1386 (103) -0.1321 (106)  0.1068 (110) -0.2253 (114)
           0.1302 (118)  0.1106 (121)
 CRD 48=   0.1015 (  4) -0.1003 (  6)  0.2056 (  9)  0.1812 ( 13)  0.1314 ( 14)
          -0.1854 ( 15) -0.1658 ( 20)  0.1660 ( 24)  0.1249 ( 27)  0.1073 ( 29)
           0.1104 ( 30) -0.1117 ( 32) -0.1670 ( 34)  0.1261 ( 37) -0.1143 ( 47)
           0.1326 ( 50) -0.1425 ( 54) -0.1393 ( 55)  0.1966 ( 59) -0.1228 ( 62)
          -0.2020 ( 64) -0.2222 ( 69)  0.1104 ( 75)  0.1674 ( 77)  0.1947 ( 88)
           0.1630 ( 89) -0.1714 ( 92) -0.1670 ( 93)  0.1331 (112)  0.1299 (117)
 CRD 49=   0.2305 (  7) -0.2090 (  8) -0.1654 (  9)  0.1506 ( 13)  0.2613 ( 14)
          -0.1123 ( 15) -0.1647 ( 18)  0.1748 ( 20)  0.1543 ( 23) -0.1325 ( 24)
           0.1070 ( 27)  0.1169 ( 32) -0.1057 ( 36) -0.1289 ( 40)  0.1493 ( 54)
           0.1098 ( 56) -0.1253 ( 58)  0.1741 ( 59)  0.1678 ( 62)  0.2235 ( 64)
          -0.1658 ( 69)  0.1028 ( 73) -0.1375 ( 77)  0.2095 ( 88)  0.1263 ( 89)
          -0.1225 ( 92) -0.1647 ( 93) -0.1301 (111) -0.1385 (115)
 CRD 50=   0.1438 (  3)  0.1671 (  6) -0.1935 (  8) -0.1044 (  9)  0.1732 ( 12)
          -0.1074 ( 15)  0.1153 ( 17)  0.1236 ( 19) -0.1818 ( 25)  0.1489 ( 28)
           0.1261 ( 29)  0.1001 ( 30)  0.1294 ( 31)  0.1331 ( 34) -0.1183 ( 36)
          -0.1926 ( 39)  0.1476 ( 50)  0.1152 ( 52)  0.1420 ( 53) -0.2054 ( 68)
           0.1780 ( 72) -0.1181 ( 77) -0.2181 ( 79)  0.1104 ( 89) -0.1749 ( 93)
          -0.1826 ( 94)  0.1306 ( 97)  0.2277 ( 98)  0.1494 (114) -0.1259 (120)
 CRD 51=  -0.2091 (  3) -0.1543 (  4)  0.1504 ( 10)  0.2034 ( 12) -0.1208 ( 22)
           0.1010 ( 24) -0.1496 ( 27) -0.1428 ( 30)  0.2018 ( 33) -0.1571 ( 35)
           0.2035 ( 39)  0.1250 ( 41) -0.1113 ( 44)  0.1500 ( 46) -0.1388 ( 47)
          -0.1032 ( 51)  0.1213 ( 56) -0.1452 ( 64) -0.1599 ( 65) -0.1072 ( 68)
          -0.1181 ( 72)  0.1495 ( 75)  0.1711 ( 79) -0.1061 ( 83) -0.1064 ( 87)
          -0.1051 ( 88) -0.1660 ( 89)  0.1590 ( 90) -0.2168 ( 91) -0.2023 ( 92)
           0.1020 ( 98)  0.1552 (105)  0.1197 (108) -0.1310 (111) -0.1048 (112)
 CRD 52=  -0.1557 ( 61)  0.2161 ( 65)  0.1569 ( 67) -0.1845 ( 71)  0.1002 ( 73)
           0.1178 ( 74) -0.2744 ( 78) -0.1782 ( 82)  0.1274 ( 86) -0.2185 ( 90)
          -0.1289 ( 96)  0.2562 ( 97)  0.1282 ( 98) -0.1039 (101) -0.1277 (104)
           0.2169 (105) -0.1034 (106) -0.1844 (108)  0.1017 (109) -0.1383 (111)
           0.1463 (112)  0.1495 (113) -0.1205 (118)  0.1720 (119)  0.3454 (120)
          -0.1127 (121) -0.2602 (122)
 CRD 53=  -0.1040 ( 16) -0.1524 ( 33) -0.1044 ( 39) -0.1142 ( 47)  0.1045 ( 55)
          -0.1705 ( 65)  0.1048 ( 68) -0.1640 ( 73)  0.2087 ( 78)  0.1184 ( 80)
          -0.2577 ( 81)  0.1205 ( 90)  0.2649 (100) -0.1037 (101) -0.2958 (104)
           0.2464 (109)  0.1128 (111) -0.1015 (112)  0.3397 (113) -0.1222 (117)
          -0.2831 (118) -0.1890 (120)  0.1237 (121)
 CRD 54=  -0.1515 (  3)  0.1462 ( 24) -0.3634 ( 25) -0.3014 ( 39)  0.1222 ( 40)
          -0.1049 ( 47)  0.1165 ( 65) -0.2848 ( 67)  0.2261 ( 73) -0.1320 ( 75)
          -0.1663 ( 78)  0.2631 ( 82) -0.1436 ( 90) -0.1499 ( 97) -0.1943 (105)
           0.2648 (108)  0.2067 (120) -0.1978 (121)  0.1924 (122)

 THE DETERMINANT OF THE G MATRIX IS 10**(   -20)


                     --------------------
                     INTERNAL COORDINATES
                     --------------------

                 - - ATOMS - -         COORDINATE      COORDINATE
 NO.   TYPE    I  J  K  L  M  N        (BOHR,RAD)       (ANG,DEG)
 ----------------------------------------------------------------
   1 STRETCH   3 10                     3.7843604       2.0025974
   2 STRETCH   7  8                     3.7762872       1.9983253
   3 STRETCH   1  3                     2.7928821       1.4779297
   4 STRETCH   1 16                     2.5345098       1.3412049
   5 STRETCH   1 18                     2.0534335       1.0866303
   6 STRETCH   2 19                     2.0505904       1.0851258
   7 STRETCH   2  3                     2.5727051       1.3614170
   8 STRETCH   2  7                     2.8342350       1.4998127
   9 STRETCH   3 20                     2.0720585       1.0964862
  10 STRETCH   4 16                     2.8108528       1.4874394
  11 STRETCH   4  5                     2.3234928       1.2295395
  12 STRETCH   4  7                     2.8728254       1.5202338
  13 STRETCH   6  7                     2.0629291       1.0916551
  14 STRETCH   8  9                     2.8404347       1.5030934
  15 STRETCH   8 15                     2.0647669       1.0926277
  16 STRETCH   8 14                     2.0659828       1.0932711
  17 STRETCH   9 13                     2.0547212       1.0873117
  18 STRETCH   9 10                     2.5669751       1.3583848
  19 STRETCH  10 12                     2.0748564       1.0979668
  20 STRETCH  10 11                     2.0655828       1.0930594
  21 STRETCH  16 17                     2.0433633       1.0813014
  22 BEND      1 16 17                  2.1540382     123.4172992
  23 BEND      1  3 20                  2.0086697     115.0882987
  24 BEND      1  3  2                  2.0310761     116.3720901
  25 BEND      1  3 10                  1.8440496     105.6562599
  26 BEND      1 16  4                  2.0772842     119.0196190
  27 BEND      2  7  4                  1.9747769     113.1463821
  28 BEND      2  3 20                  2.0695134     118.5743820
  29 BEND      2  7  8                  1.8059941     103.4758378
  30 BEND      2  3 10                  1.7636027     101.0469910
  31 BEND      2  7  6                  2.0156668     115.4891994
  32 BEND      3  1 16                  2.1483799     123.0931014
  33 BEND      3 10  9                  1.8753190     107.4478658
  34 BEND      3  2  7                  2.0348390     116.5876844
  35 BEND      3 10 11                  1.8014629     103.2162230
  36 BEND      3  2 19                  2.1096036     120.8713804
  37 BEND      3  1 18                  2.0344491     116.5653454
  38 BEND      3 10 12                  1.5053102      86.2479239
  39 BEND      4  7  8                  1.8070028     103.5336312
  40 BEND      4  7  6                  1.9791347     113.3960665
  41 BEND      4 16 17                  2.0517767     117.5581430
  42 BEND      5  4  7                  2.1400837     122.6177620
  43 BEND      5  4 16                  2.0866429     119.5558308
  44 BEND      6  7  8                  1.8539526     106.2236589
  45 BEND      7  8 14                  1.8288308     104.7842846
  46 BEND      7  8 15                  1.8186606     104.2015766
  47 BEND      7  8  9                  1.8427922     105.5842170
  48 BEND      7  4 16                  2.0550299     117.7445418
  49 BEND      7  2 19                  2.0731842     118.7847070
  50 BEND      8  9 10                  2.1035965     120.5272018
  51 BEND      8  9 13                  2.0472938     117.3012928
  52 BEND      9  8 15                  1.9833664     113.6385238
  53 BEND      9 10 11                  2.0602549     118.0439097
  54 BEND      9 10 12                  2.0551939     117.7539372
  55 BEND      9  8 14                  1.9902726     114.0342203
  56 BEND     10  9 13                  2.0905789     119.7813464
  57 BEND     10  3 20                  1.6613909      95.1906858
  58 BEND     11 10 12                  2.0375621     116.7437114
  59 BEND     14  8 15                  1.9777215     113.3150937
  60 BEND     16  1 18                  2.0996853     120.3031083
  61 TORSION   1  3  2 19              -2.8009847    -160.4845994
  62 TORSION   1  3 10 11               1.1348100      65.0198242
  63 TORSION   1  3 10 12              -3.1132365    -178.3753099
  64 TORSION   1  3 10  9              -1.0547674     -60.4337210
  65 TORSION   1 16  4  7              -0.0010853      -0.0621854
  66 TORSION   1 16  4  5              -3.0867689    -176.8588307
  67 TORSION   1  3  2  7               0.7262877      41.6132214
  68 TORSION   2  3 10  9               1.0684388      61.2170335
  69 TORSION   2  7  8 14               1.2817327      73.4378719
  70 TORSION   2  7  8 15              -2.9196757    -167.2850937
  71 TORSION   2  3  1 18               2.7630790     158.3127649
  72 TORSION   2  7  8  9              -0.8253105     -47.2868084
  73 TORSION   2  3  1 16              -0.3391932     -19.4343410
  74 TORSION   2  7  4  5              -2.8391127    -162.6691757
  75 TORSION   2  7  4 16               0.3602224      20.6392239
  76 TORSION   2  3 10 11              -3.0251691    -173.3294213
  77 TORSION   2  3 10 12              -0.9900303     -56.7245554
  78 TORSION   3  1 16  4              -0.0327954      -1.8790355
  79 TORSION   3  2  7  8               1.2070250      69.1574403
  80 TORSION   3 10  9 13               1.7937675     102.7753059
  81 TORSION   3 10  9  8              -1.0333707     -59.2077807
  82 TORSION   3  2  7  4              -0.7364905     -42.1977984
  83 TORSION   3  1 16 17               3.1232680     178.9500746
  84 TORSION   3  2  7  6              -3.0580782    -175.2149729
  85 TORSION   4 16  1 18              -3.1336524    -179.5450573
  86 TORSION   4  7  2 19               2.7824046     159.4200427
  87 TORSION   4  7  8 14              -2.9374709    -168.3046844
  88 TORSION   4  7  8 15              -0.8556939     -49.0276501
  89 TORSION   4  7  8  9               1.2386713      70.9706352
  90 TORSION   5  4 16 17               0.0411996       2.3605629
  91 TORSION   5  4  7  6              -0.5000372     -28.6500213
  92 TORSION   5  4  7  8               1.5011772      86.0111174
  93 TORSION   6  7  8 14              -0.8483771     -48.6084254
  94 TORSION   6  7  8 15               1.2333999      70.6686089
  95 TORSION   6  7  8  9              -2.9554202    -169.3331058
  96 TORSION   6  7  4 16               2.6992979     154.6583783
  97 TORSION   6  7  2 19               0.4608170      26.4028682
  98 TORSION   7  2  3 10              -1.2600609     -72.1961702
  99 TORSION   7  2  3 20              -3.0437560    -174.3943717
 100 TORSION   7  8  9 10               0.9451917      54.1554975
 101 TORSION   7  8  9 13              -1.8895064    -108.2607402
 102 TORSION   7  4 16 17               3.1268832     179.1572081
 103 TORSION   8  9 10 11              -3.0586069    -175.2452682
 104 TORSION   8  9 10 12               0.6254145      35.8336099
 105 TORSION   8  7  2 19              -1.5572651     -89.2247186
 106 TORSION   8  7  4 16              -1.5826730     -90.6804830
 107 TORSION   9 10  3 20              -3.1121666    -178.3140094
 108 TORSION  10  3  2 19               1.4958520      85.7060090
 109 TORSION  10  9  8 14              -1.0529382     -60.3289156
 110 TORSION  10  9  8 15               2.9276153     167.7400007
 111 TORSION  10  3  1 18              -1.5798983     -90.5215029
 112 TORSION  10  3  1 16               1.6010148      91.7313911
 113 TORSION  11 10  9 13              -0.2314687     -13.2621815
 114 TORSION  11 10  3 20              -0.9225891     -52.8604642
 115 TORSION  12 10  3 20               1.1125497      63.7444018
 116 TORSION  12 10  9 13              -2.8306326    -162.1833034
 117 TORSION  13  9  8 14               2.3955490     137.2548467
 118 TORSION  13  9  8 15               0.0929172       5.3237630
 119 TORSION  16  1  3 20              -2.8741970    -164.6793595
 120 TORSION  17 16  1 18               0.0224110       1.2840529
 121 TORSION  18  1  3 20               0.2280752      13.0677465
 122 TORSION  19  2  3 20              -0.2878431     -16.4921925

     ------------------------------------------
     THE POINT GROUP IS C1 , NAXIS= 0, ORDER= 1
     ------------------------------------------

     DIMENSIONS OF THE SYMMETRY SUBSPACES ARE
 A   =   60

 ..... DONE SETTING UP THE RUN .....
 STEP CPU TIME =     0.05 TOTAL CPU TIME =          0.0 (      0.0 MIN)
 TOTAL WALL CLOCK TIME=          0.1 SECONDS, CPU UTILIZATION IS    83.33%


          -----------------------------
          STATIONARY POINT LOCATION RUN
          -----------------------------


           ** GEOMETRY CONSTRAINTS ARE BEING APPLIED. **

          TRANSFORMING DISPLACEMENT FROM INTERNALS TO CARTESIANS
          THE ROOT MEAN SQUARE ERROR IN ITERATION   1 IS   0.00000150
          THE ROOT MEAN SQUARE ERROR IN ITERATION   2 IS   0.00000000
 WARNING! THE RADIUS IN CARTESIANS IS    0.00949
 OBTAINING INITIAL HESSIAN, HESS=CALC    

     ---------------------------------
     HESSIAN MATRIX CONTROL PARAMETERS
     ---------------------------------
     METHOD=ANALYTIC   NVIB  =       2   VIBSIZ= 0.01000
     RDHESS=       F   PURIFY=       F   PRTIFC=       F
     VIBANL=       F   DECOMP=       F   PROJCT=       F
     SCLFAC= 1.00000   PRTSCN=       F   NPRT  =       0
     PULCOR=       F   NPUN  =       0   REDOVB=       T
     HSSTYP=GENERAL 
 Old integral subroutine is used

     ------------------------------
     CPHF RESPONSE SOLUTION OPTIONS
     ------------------------------
     POLAR  =       F     NWORD  =       0
     CPHF   =AO      

          ********************
          1 ELECTRON INTEGRALS
          ********************
 ...... END OF ONE-ELECTRON INTEGRALS ......
 STEP CPU TIME =     0.04 TOTAL CPU TIME =          0.1 (      0.0 MIN)
 TOTAL WALL CLOCK TIME=          0.1 SECONDS, CPU UTILIZATION IS    90.00%

          -------------
          GUESS OPTIONS
          -------------
          GUESS =HUCKEL            NORB  =       0          NORDER=       0
          MIX   =       F          PRTMO =       F          PUNMO =       F
          TOLZ  = 1.0E-08          TOLE  = 1.0E-05
          SYMDEN=       F          PURIFY=       F

 INITIAL GUESS ORBITALS GENERATED BY HUCKEL   ROUTINE.
 HUCKEL GUESS REQUIRES     53820 WORDS.

 SYMMETRIES FOR INITIAL GUESS ORBITALS FOLLOW.   BOTH SET(S).
    36 ORBITALS ARE OCCUPIED (   10 CORE ORBITALS).
    11=A       12=A       13=A       14=A       15=A       16=A       17=A   
    18=A       19=A       20=A       21=A       22=A       23=A       24=A   
    25=A       26=A       27=A       28=A       29=A       30=A       31=A   
    32=A       33=A       34=A       35=A       36=A       37=A       38=A   
    39=A       40=A       41=A       42=A       43=A       44=A       45=A   
    46=A   
 ...... END OF INITIAL ORBITAL SELECTION ......
 STEP CPU TIME =     0.02 TOTAL CPU TIME =          0.1 (      0.0 MIN)
 TOTAL WALL CLOCK TIME=          0.1 SECONDS, CPU UTILIZATION IS    91.67%

                    ----------------------
                    AO INTEGRAL TECHNOLOGY
                    ----------------------
     S,P,L SHELL ROTATED AXIS INTEGRALS, REPROGRAMMED BY
        KAZUYA ISHIMURA (IMS) AND JOSE SIERRA (SYNSTAR).
     S,P,D,L SHELL ROTATED AXIS INTEGRALS PROGRAMMED BY
        KAZUYA ISHIMURA (INSTITUTE FOR MOLECULAR SCIENCE).
     S,P,D,F,G SHELL TO TOTAL QUARTET ANGULAR MOMENTUM SUM 5,
        ERIC PROGRAM BY GRAHAM FLETCHER (ELORET AND NASA ADVANCED
        SUPERCOMPUTING DIVISION, AMES RESEARCH CENTER).
     S,P,D,F,G,L SHELL GENERAL RYS QUADRATURE PROGRAMMED BY
        MICHEL DUPUIS (PACIFIC NORTHWEST NATIONAL LABORATORY).

          --------------------
          2 ELECTRON INTEGRALS
          --------------------

 THE -PK- OPTION IS OFF, THE INTEGRALS ARE NOT IN SUPERMATRIX FORM.
 STORING   15000 INTEGRALS/RECORD ON DISK, USING 12 BYTES/INTEGRAL.
 TWO ELECTRON INTEGRAL EVALUATION REQUIRES   89821 WORDS OF MEMORY.
 SCHWARZ INEQUALITY OVERHEAD:      1797 INTEGRALS, T=        0.00
 II,JST,KST,LST =  1  1  1  1 NREC =         1 INTLOC =    1
 II,JST,KST,LST =  2  1  1  1 NREC =         1 INTLOC =    2
 II,JST,KST,LST =  3  1  1  1 NREC =         1 INTLOC =   34
 II,JST,KST,LST =  4  1  1  1 NREC =         1 INTLOC =  124
 II,JST,KST,LST =  5  1  1  1 NREC =         1 INTLOC = 1312
 II,JST,KST,LST =  6  1  1  1 NREC =         1 INTLOC = 1943
 II,JST,KST,LST =  7  1  1  1 NREC =         1 INTLOC = 6843
 II,JST,KST,LST =  8  1  1  1 NREC =         1 INTLOC = 8458
 II,JST,KST,LST =  9  1  1  1 NREC =         2 INTLOC = 5870
 II,JST,KST,LST = 10  1  1  1 NREC =         2 INTLOC = 9059
 II,JST,KST,LST = 11  1  1  1 NREC =         4 INTLOC =  701
 II,JST,KST,LST = 12  1  1  1 NREC =         4 INTLOC = 8861
 II,JST,KST,LST = 13  1  1  1 NREC =         5 INTLOC = 1548
 II,JST,KST,LST = 14  1  1  1 NREC =         8 INTLOC = 5319
 II,JST,KST,LST = 15  1  1  1 NREC =         9 INTLOC = 1202
 II,JST,KST,LST = 16  1  1  1 NREC =        14 INTLOC = 2722
 II,JST,KST,LST = 17  1  1  1 NREC =        15 INTLOC = 4030
 II,JST,KST,LST = 18  1  1  1 NREC =        22 INTLOC =12594
 II,JST,KST,LST = 19  1  1  1 NREC =        24 INTLOC = 6420
 II,JST,KST,LST = 20  1  1  1 NREC =        34 INTLOC =14220
 II,JST,KST,LST = 21  1  1  1 NREC =        37 INTLOC =14272
 II,JST,KST,LST = 22  1  1  1 NREC =        41 INTLOC = 3635
 II,JST,KST,LST = 23  1  1  1 NREC =        44 INTLOC =12965
 II,JST,KST,LST = 24  1  1  1 NREC =        48 INTLOC =10231
 II,JST,KST,LST = 25  1  1  1 NREC =        52 INTLOC =11812
 II,JST,KST,LST = 26  1  1  1 NREC =        56 INTLOC = 3632
 II,JST,KST,LST = 27  1  1  1 NREC =        76 INTLOC = 8020
 II,JST,KST,LST = 28  1  1  1 NREC =        82 INTLOC = 2691
 II,JST,KST,LST = 29  1  1  1 NREC =        88 INTLOC = 1530
 II,JST,KST,LST = 30  1  1  1 NREC =        94 INTLOC = 6395
 SCHWARZ INEQUALITY TEST SKIPPED       23864 INTEGRAL BLOCKS.
 TOTAL NUMBER OF NONZERO TWO-ELECTRON INTEGRALS =             1499706
        100 INTEGRAL RECORDS WERE STORED ON DISK FILE  8.
  ...... END OF TWO-ELECTRON INTEGRALS .....
 STEP CPU TIME =     0.29 TOTAL CPU TIME =          0.4 (      0.0 MIN)
 TOTAL WALL CLOCK TIME=          0.4 SECONDS, CPU UTILIZATION IS    95.24%

          --------------------------
                 RHF SCF CALCULATION
          --------------------------

     NUCLEAR ENERGY =       507.9512098716
     MAXIT =   30     NPUNCH=    2
     EXTRAP=T  DAMP=F  SHIFT=F  RSTRCT=F  DIIS=F  DEM=F  SOSCF=T
     DENSITY MATRIX CONV=  1.00E-05
     SOSCF WILL OPTIMIZE     864 ORBITAL ROTATIONS, SOGTOL=   0.250
     MEMORY REQUIRED FOR RHF ITERS=     59496 WORDS.

 ITER EX DEM     TOTAL ENERGY        E CHANGE  DENSITY CHANGE     ORB. GRAD
   1  0  0     -415.5109733942  -415.5109733942   0.546375264   0.000000000
          ---------------START SECOND ORDER SCF---------------
   2  1  0     -416.0222712944    -0.5112979002   0.316647664   0.059341147
   3  2  0     -416.0545093208    -0.0322380264   0.153122881   0.049773437
   4  3  0     -416.0882725195    -0.0337631987   0.023987802   0.005993445
   5  4  0     -416.0891997874    -0.0009272679   0.008055530   0.003058443
   6  5  0     -416.0893396866    -0.0001398992   0.002166801   0.000878720
   7  6  0     -416.0893602352    -0.0000205486   0.000996655   0.000253149
   8  7  0     -416.0893624932    -0.0000022580   0.000393278   0.000107527
   9  8  0     -416.0893629607    -0.0000004675   0.000142193   0.000032545
  10  9  0     -416.0893630204    -0.0000000597   0.000069036   0.000012631
  11 10  0     -416.0893630282    -0.0000000077   0.000025374   0.000003875
  12 11  0     -416.0893630292    -0.0000000010   0.000009804   0.000003068
  13 12  0     -416.0893630293    -0.0000000002   0.000003985   0.000000885

          -----------------
          DENSITY CONVERGED
          -----------------
     TIME TO FORM FOCK OPERATORS=       0.3 SECONDS (       0.0 SEC/ITER)
     TIME TO SOLVE SCF EQUATIONS=       0.1 SECONDS (       0.0 SEC/ITER)

 FINAL RHF ENERGY IS     -416.0893630293 AFTER  13 ITERATIONS

          ------------
          EIGENVECTORS
          ------------

                      1          2          3          4          5
                  -20.2501   -11.1086   -11.0541   -11.0530   -11.0522
                     A          A          A          A          A   
    1  C  1  S    0.000007  -0.000405  -0.010191  -0.003543  -0.000775
    2  C  1  S    0.000017   0.000120  -0.006726  -0.000418  -0.000084
    3  C  1  X    0.000083  -0.000018   0.004319   0.000235   0.000050
    4  C  1  Y    0.000019   0.000005  -0.000980   0.000107   0.000022
    5  C  1  Z    0.000013   0.000002   0.000050   0.000031   0.000019
    6  C  2  S    0.000005  -0.000341   0.008127  -0.000935  -0.001354
    7  C  2  S    0.000012   0.000064  -0.007113  -0.005878  -0.002000
    8  C  2  X   -0.000079  -0.000090  -0.002800  -0.000833  -0.000237
    9  C  2  Y   -0.000014  -0.000011  -0.002636   0.003884   0.001279
   10  C  2  Z    0.000004   0.000031  -0.002763   0.000367   0.000053
   11  C  3  S    0.000003  -0.000344   0.991166   0.032362   0.006355
   12  C  3  S    0.000015  -0.000055   0.036880   0.001320   0.000332
   13  C  3  X   -0.000004  -0.000059  -0.000038   0.000014  -0.000006
   14  C  3  Y    0.000038   0.000103  -0.000446   0.000049   0.000014
   15  C  3  Z    0.000004   0.000034  -0.001807  -0.000090  -0.000048
   16  C  4  S    0.000557   0.992514   0.000281   0.002712   0.001489
   17  C  4  S   -0.007138   0.033132   0.000155  -0.005522  -0.001872
   18  C  4  X   -0.002145   0.000458  -0.000129   0.003960   0.001277
   19  C  4  Y    0.005553  -0.000314  -0.000116  -0.000858  -0.000252
   20  C  4  Z    0.002095   0.000149  -0.000081  -0.000065  -0.000086
   21  O  5  S    0.994273   0.000182   0.000006  -0.000016  -0.000017
   22  O  5  S    0.025901  -0.005829  -0.000065   0.000220   0.000137
   23  O  5  X   -0.001854   0.000593   0.000024  -0.000183  -0.000096
   24  O  5  Y    0.004869  -0.001588  -0.000034   0.000072   0.000043
   25  O  5  Z    0.001851  -0.000630  -0.000006  -0.000011   0.000029
   26  H  6  S   -0.000151  -0.000034   0.000100  -0.006534  -0.002150
   27  C  7  S   -0.000024  -0.002053  -0.032646   0.938549   0.320435
   28  C  7  S    0.000268  -0.005550  -0.001101   0.033669   0.008856
   29  C  7  X    0.000044  -0.003926  -0.000149   0.000457   0.000832
   30  C  7  Y   -0.000406   0.001024  -0.000090   0.000493   0.001094
   31  C  7  Z   -0.000202   0.000338  -0.000144  -0.000763  -0.002550
   32  C  8  S   -0.000008  -0.000479   0.004366  -0.319704   0.939424
   33  C  8  S    0.000038   0.000041   0.000269  -0.013571   0.032041
   34  C  8  X    0.000057  -0.000311  -0.000011  -0.000476  -0.000629
   35  C  8  Y   -0.000013  -0.000045   0.000025  -0.000620  -0.000896
   36  C  8  Z   -0.000012   0.000059  -0.000043   0.001549   0.002271
   37  C  9  S    0.000001  -0.000121  -0.000750  -0.000087  -0.001511
   38  C  9  S   -0.000014  -0.000023   0.000201   0.001910  -0.005523
   39  C  9  X   -0.000000  -0.000063  -0.000029  -0.000630   0.001708
   40  C  9  Y    0.000003  -0.000016   0.000218  -0.000884   0.002484
   41  C  9  Z    0.000003   0.000065   0.000007  -0.000915   0.002627
   42  C 10  S   -0.000000   0.000040  -0.021571  -0.000245  -0.002479
   43  C 10  S    0.000004   0.000029  -0.003422  -0.000114   0.000034
   44  C 10  X   -0.000000   0.000014  -0.000924  -0.000033  -0.000056
   45  C 10  Y   -0.000002  -0.000017  -0.000701  -0.000028   0.000021
   46  C 10  Z   -0.000002  -0.000020   0.002277   0.000096   0.000030
   47  H 11  S    0.000000   0.000002   0.000279   0.000024  -0.000052
   48  H 12  S   -0.000001  -0.000007   0.000070   0.000054  -0.000094
   49  H 13  S    0.000009  -0.000032   0.000018  -0.000019   0.000098
   50  H 14  S    0.000014  -0.000130  -0.000036   0.002252  -0.006442
   51  H 15  S   -0.000018  -0.000260  -0.000029   0.002259  -0.006438
   52  C 16  S   -0.000026  -0.000833  -0.000696  -0.000718  -0.000131
   53  C 16  S    0.000373  -0.006013   0.000270   0.000145   0.000074
   54  C 16  X    0.000224   0.002627  -0.000135  -0.000035  -0.000028
   55  C 16  Y   -0.000405   0.002990   0.000063   0.000062  -0.000009
   56  C 16  Z   -0.000151   0.001450  -0.000017  -0.000005   0.000004
   57  H 17  S   -0.000215   0.000023  -0.000034  -0.000050  -0.000018
   58  H 18  S   -0.000024  -0.000061   0.000158  -0.000021  -0.000008
   59  H 19  S   -0.000023  -0.000065   0.000073   0.000070   0.000054
   60  H 20  S   -0.000016  -0.000035  -0.006801  -0.000307  -0.000074

                      6          7          8          9         10
                  -11.0457   -11.0411   -11.0230   -11.0194   -11.0098
                     A          A          A          A          A   
    1  C  1  S    0.992024   0.006620  -0.015531   0.001481   0.000777
    2  C  1  S    0.035853   0.000141  -0.008423   0.000132  -0.000060
    3  C  1  X    0.000203  -0.000002  -0.001574   0.000016   0.000070
    4  C  1  Y   -0.001021   0.000037   0.003990   0.000154   0.000134
    5  C  1  Z   -0.000606  -0.000049   0.001754   0.000188  -0.000105
    6  C  2  S   -0.001442  -0.001565  -0.008849   0.992129   0.002261
    7  C  2  S   -0.000002  -0.000179  -0.000441   0.035965   0.000089
    8  C  2  X   -0.000128   0.000018  -0.000199   0.000378   0.000015
    9  C  2  Y    0.000036   0.000061   0.000056   0.000157   0.000053
   10  C  2  Z    0.000055  -0.000032  -0.000021   0.002323  -0.000099
   11  C  3  S    0.011127   0.022549   0.000626  -0.007366   0.000607
   12  C  3  S   -0.005682  -0.001845   0.000436  -0.007846   0.000034
   13  C  3  X   -0.004128   0.000642   0.000117   0.002862  -0.000051
   14  C  3  Y    0.001053   0.000881  -0.000002   0.002341   0.000266
   15  C  3  Z    0.000277  -0.002294  -0.000043   0.002864   0.000034
   16  C  4  S    0.000503  -0.000033   0.001814   0.000432   0.000153
   17  C  4  S    0.000094   0.000006  -0.006225   0.000038  -0.000024
   18  C  4  X    0.000128  -0.000002  -0.002812  -0.000015   0.000015
   19  C  4  Y   -0.000164   0.000005  -0.002879  -0.000161  -0.000023
   20  C  4  Z   -0.000067   0.000019  -0.001445   0.000034  -0.000107
   21  O  5  S    0.000014  -0.000000  -0.000019   0.000009   0.000001
   22  O  5  S   -0.000128   0.000002   0.000307  -0.000079  -0.000014
   23  O  5  X    0.000001  -0.000000   0.000050   0.000036   0.000002
   24  O  5  Y   -0.000067   0.000000   0.000181  -0.000020  -0.000013
   25  O  5  Z   -0.000025   0.000001   0.000078  -0.000029   0.000016
   26  H  6  S   -0.000076  -0.000018  -0.000068   0.000024  -0.000112
   27  C  7  S    0.003313   0.000346   0.000651   0.002531   0.000596
   28  C  7  S    0.000097   0.000055   0.000247  -0.005785   0.000021
   29  C  7  X   -0.000107   0.000000   0.000029   0.000753  -0.000121
   30  C  7  Y   -0.000083   0.000024   0.000043  -0.004159  -0.000121
   31  C  7  Z   -0.000071  -0.000055  -0.000031  -0.000453  -0.000159
   32  C  8  S   -0.000393   0.002430  -0.000120   0.001005   0.002322
   33  C  8  S    0.000012   0.000185   0.000032   0.000030  -0.005700
   34  C  8  X    0.000023   0.000050   0.000020   0.000064  -0.001867
   35  C  8  Y    0.000023  -0.000114   0.000014  -0.000305  -0.002630
   36  C  8  Z    0.000006   0.000057   0.000000   0.000036  -0.002768
   37  C  9  S   -0.000801   0.008898  -0.000868  -0.002227   0.992174
   38  C  9  S   -0.000040  -0.007275  -0.000079  -0.000020   0.035930
   39  C  9  X   -0.000126   0.000710  -0.000050  -0.000020   0.000612
   40  C  9  Y   -0.000013  -0.004569  -0.000023  -0.000026   0.001649
   41  C  9  Z    0.000119   0.000119   0.000084   0.000119  -0.001039
   42  C 10  S   -0.006787   0.991861  -0.000170   0.001826  -0.008248
   43  C 10  S   -0.000249   0.036283   0.000032   0.000154  -0.007894
   44  C 10  X   -0.000270  -0.000297   0.000022   0.000084  -0.000781
   45  C 10  Y    0.000067  -0.001497  -0.000027   0.000283   0.004636
   46  C 10  Z    0.000046   0.000676  -0.000011   0.000349  -0.000154
   47  H 11  S   -0.000038  -0.006796   0.000003  -0.000174   0.000151
   48  H 12  S   -0.000080  -0.006680   0.000007  -0.000505   0.000062
   49  H 13  S   -0.000051   0.000051  -0.000069  -0.000019  -0.006894
   50  H 14  S   -0.000000  -0.000011  -0.000001  -0.000053  -0.000095
   51  H 15  S    0.000004  -0.000113  -0.000003  -0.000134   0.000040
   52  C 16  S    0.016125   0.000246   0.992009   0.008931   0.000922
   53  C 16  S   -0.007131  -0.000000   0.036390   0.000273   0.000029
   54  C 16  X    0.001576  -0.000006  -0.000969   0.000160   0.000049
   55  C 16  Y   -0.003865   0.000003   0.001141  -0.000042   0.000029
   56  C 16  Z   -0.001676   0.000011   0.000520   0.000077  -0.000062
   57  H 17  S    0.000023  -0.000001  -0.006843  -0.000119  -0.000022
   58  H 18  S   -0.006837  -0.000020   0.000213  -0.000113  -0.000022
   59  H 19  S   -0.000076   0.000136   0.000009  -0.006862  -0.000024
   60  H 20  S   -0.000016  -0.000014  -0.000082   0.000168  -0.000115

                     11         12         13         14         15
                   -1.3036    -1.0874    -1.0067    -0.9590    -0.9348
                     A          A          A          A          A   
    1  C  1  S   -0.006702  -0.107901   0.085770   0.102906  -0.022806
    2  C  1  S    0.015981   0.275681  -0.226518  -0.279360   0.065317
    3  C  1  X    0.000370  -0.043177  -0.010706  -0.062201  -0.077990
    4  C  1  Y   -0.006755  -0.032632   0.043149   0.069858   0.075708
    5  C  1  Z   -0.003040  -0.017518   0.028284   0.022331   0.029863
    6  C  2  S   -0.005260  -0.108535   0.006588  -0.130629  -0.029235
    7  C  2  S    0.012143   0.275037  -0.017005   0.354621   0.076003
    8  C  2  X    0.003057   0.052448  -0.019800   0.014614   0.027086
    9  C  2  Y   -0.004179   0.000638  -0.011488  -0.027054   0.118841
   10  C  2  Z    0.000590   0.049174   0.004666   0.021489   0.062685
   11  C  3  S   -0.003659  -0.127912   0.024246  -0.045289  -0.122104
   12  C  3  S    0.008699   0.333733  -0.064224   0.120744   0.342882
   13  C  3  X    0.001100   0.006305  -0.048396  -0.103661  -0.015001
   14  C  3  Y   -0.002652  -0.050538   0.003573  -0.027838   0.014739
   15  C  3  Z   -0.001610  -0.035739   0.031153  -0.065457  -0.007012
   16  C  4  S   -0.128075  -0.034388   0.022956   0.002062   0.076927
   17  C  4  S    0.298073   0.094014  -0.064450  -0.006710  -0.224001
   18  C  4  X    0.051724  -0.026983  -0.025619  -0.104051   0.071013
   19  C  4  Y   -0.132943   0.077784  -0.054816  -0.032659  -0.107500
   20  C  4  Z   -0.049767   0.032855  -0.018209  -0.024665  -0.047623
   21  O  5  S   -0.213751   0.038270  -0.017204  -0.002943  -0.055724
   22  O  5  S    0.747697  -0.143024   0.066425   0.012186   0.222338
   23  O  5  X   -0.054258   0.002455  -0.008902  -0.026991   0.016623
   24  O  5  Y    0.143962  -0.006289  -0.005504  -0.008158  -0.018815
   25  O  5  Z    0.055284  -0.001842  -0.001114  -0.006811  -0.009058
   26  H  6  S    0.008892   0.033940   0.008139   0.081281  -0.095039
   27  C  7  S   -0.022039  -0.073931  -0.007003  -0.105709   0.116655
   28  C  7  S    0.055888   0.199057   0.022543   0.300471  -0.338725
   29  C  7  X    0.028021   0.015152  -0.020465  -0.013088  -0.041714
   30  C  7  Y   -0.006749   0.045267  -0.012311   0.058890   0.026571
   31  C  7  Z   -0.003193   0.009655   0.019461  -0.016958   0.005912
   32  C  8  S   -0.002697  -0.037888  -0.096845   0.011756   0.090824
   33  C  8  S    0.006820   0.104204   0.270603  -0.030315  -0.265313
   34  C  8  X    0.001535   0.011146   0.019092  -0.007833  -0.008284
   35  C  8  Y    0.000450   0.019059   0.035900  -0.008446   0.003453
   36  C  8  Z   -0.001875   0.003029   0.049736  -0.044932   0.008969
   37  C  9  S   -0.001221  -0.052081  -0.148473   0.067243   0.015320
   38  C  9  S    0.002916   0.131523   0.388273  -0.180337  -0.044544
[...]
 19   H            X -0.04599471  0.00342667  0.02648319 -0.01048588 -0.00328520
                   Y -0.23102458  0.00663329  0.10702392 -0.04068965 -0.00821670
                   Z -0.10455651 -0.00466485  0.05206838 -0.02085650 -0.00982094
 20   H            X  0.06851797 -0.01267216 -0.00667569  0.09648551  0.02000692
                   Y -0.03622936 -0.00397420  0.03625726 -0.01780513 -0.00478068
                   Z -0.05933519  0.01484938 -0.00629659 -0.01089551 -0.00757411

 TRANS. SAYVETZ    X  0.00000082  0.00000082  0.00000053 -0.00000114 -0.00000002
                   Y  0.00000046 -0.00000095  0.00000025  0.00000026  0.00000107
                   Z  0.00000324  0.00000058  0.00000243  0.00000246  0.00000323
               TOTAL  0.00000337  0.00000138  0.00000250  0.00000272  0.00000341

   ROT. SAYVETZ    X -0.01012805 -0.00280175  0.03233968 -0.00489566 -0.00391061
                   Y  0.00708980 -0.01183212 -0.01036034  0.00022157 -0.00109189
                   Z -0.00055109 -0.00560296  0.00603631 -0.00144782 -0.00161345
               TOTAL  0.01237523  0.01338813  0.03449099  0.00511006  0.00436902

                           51          52          53          54          55
       FREQUENCY:      3631.38     3635.52     3691.47     3697.73     3706.36  
        SYMMETRY:         A           A           A           A           A   
    REDUCED MASS:      1.06289     1.06487     1.09127     1.09378     1.09165
    IR INTENSITY:      0.13105     0.09178     0.20366     0.11156     0.48907

  1   C            X  0.00006271 -0.00011207 -0.00532414  0.01502901  0.04019815
                   Y  0.00041123  0.00006480 -0.00775030  0.01995280  0.04283543
                   Z -0.00001336  0.00009764 -0.00392164  0.01004298  0.02220562
  2   C            X -0.00253363 -0.00011234  0.03207837 -0.00622831  0.01117984
                   Y  0.00084498 -0.00052155 -0.00975520  0.00701297 -0.00599648
                   Z -0.00061484 -0.00024139  0.00807923  0.00026060  0.00219738
  3   C            X  0.00104298  0.00008959 -0.00876253  0.01236029 -0.00845067
                   Y -0.00224286 -0.00009962  0.03565027 -0.06115161  0.02776964
                   Z -0.00019677  0.00091529  0.00437777 -0.00790649  0.00315572
  4   C            X -0.00011282  0.00003489  0.00155125  0.00203122  0.00129726
                   Y  0.00019546  0.00002941 -0.00008866  0.00010182  0.00068141
                   Z -0.00016890 -0.00008520  0.00007410  0.00028527  0.00038943
  5   O            X  0.00000865 -0.00000384 -0.00009690 -0.00024945 -0.00018642
                   Y -0.00005173 -0.00000462  0.00000255  0.00007691 -0.00000833
                   Z  0.00001863  0.00001083 -0.00001901 -0.00001604 -0.00001489
  6   H            X -0.01598315  0.00418454  0.42983814  0.30226458 -0.07161923
                   Y -0.01498478  0.00369402  0.41384437  0.29266277 -0.06896622
                   Z -0.01666798  0.00547162  0.43128000  0.30350347 -0.07140227
  7   C            X  0.00189738  0.00004966 -0.03844862 -0.02626911  0.00602046
                   Y  0.00118346  0.00061384 -0.03703919 -0.02736041  0.00701870
                   Z  0.00128117 -0.00072463 -0.03710361 -0.02668467  0.00643711
  8   C            X -0.03298098 -0.03340469 -0.00203901  0.00133759 -0.00079227
                   Y -0.03381626 -0.03405747 -0.00193497  0.00078125 -0.00038983
                   Z -0.01118875 -0.01028708 -0.00075528  0.00105669 -0.00056175
  9   C            X -0.00645337  0.00166448  0.00439732 -0.00136421  0.00228241
                   Y  0.00178391  0.00689338 -0.00191351  0.00016648 -0.00078171
                   Z -0.00056562  0.00312890  0.00176453 -0.00068034  0.00092048
 10   C            X -0.01640002  0.01722201 -0.00126059 -0.00020288 -0.00017211
                   Y  0.03920095 -0.03980818  0.00301055  0.00033137  0.00007107
                   Z  0.02201539 -0.02341437  0.00109610 -0.00040264  0.00028660
 11   H            X -0.26857730  0.27409330 -0.01527800  0.00283082 -0.00075181
                   Y -0.25850811  0.26327182 -0.01539706  0.00314995 -0.00102123
                   Z -0.29298420  0.29823717 -0.01515015  0.00419609 -0.00091696
 12   H            X  0.45201316 -0.46254952  0.03078128  0.00071057  0.00353447
                   Y -0.15122402  0.15428908 -0.01110689  0.00005079 -0.00097525
                   Z  0.03736564 -0.03598971  0.00300599  0.00003885 -0.00057957
 13   H            X  0.11124395 -0.00093582 -0.04873443  0.01436829 -0.02505686
                   Y -0.04276821  0.00290909  0.01878196 -0.00545024  0.00968336
                   Z  0.04017742  0.00068236 -0.01767912  0.00520434 -0.00911973
 14   H            X  0.47318252  0.47378120  0.02876312 -0.01481425  0.00774543
                   Y -0.09483528 -0.09359336 -0.00535052  0.00329327 -0.00168653
                   Z  0.06004846  0.05825397  0.00426653 -0.00233062  0.00132525
 15   H            X -0.11350188 -0.11340195 -0.00589470  0.00211581 -0.00088324
                   Y  0.46191018  0.45906230  0.02439306 -0.00585453  0.00360474
                   Z  0.03790752  0.03775880  0.00312715 -0.00168076  0.00073644
 16   C            X -0.00039738  0.00006372  0.00451774 -0.01473740 -0.04290697
                   Y -0.00000587 -0.00005530 -0.00036358  0.00185366  0.00675036
                   Z  0.00002699  0.00002479  0.00005339 -0.00013654  0.00006532
 17   H            X  0.00451589 -0.00098006 -0.04822875  0.17113958  0.49630222
                   Y -0.00107117  0.00019636  0.01088576 -0.03768390 -0.10947412
                   Z -0.00003201  0.00001230  0.00113345 -0.00483130 -0.01531398
 18   H            X -0.00329201 -0.00017651  0.07265209 -0.19176134 -0.44616460
                   Y -0.00355096 -0.00021985  0.08134048 -0.21484027 -0.49408758
                   Z -0.00184642 -0.00004380  0.04247818 -0.11120855 -0.25423123
 19   H            X  0.03144426 -0.00000707 -0.37483286  0.08327819 -0.13461768
                   Y -0.01103022  0.00024215  0.13244615 -0.03111508  0.04922390
                   Z  0.00779588  0.00009109 -0.09477161  0.02015942 -0.03421136
 20   H            X -0.00588663 -0.00124251  0.09071520 -0.15132862  0.07140299
                   Y  0.02692733  0.00727357 -0.40954241  0.68887393 -0.31440893
                   Z  0.00202199 -0.00046329 -0.04381764  0.07493384 -0.03393119

 TRANS. SAYVETZ    X  0.00000049 -0.00000079 -0.00000099  0.00000016 -0.00000032
                   Y -0.00000027  0.00000041  0.00000100  0.00000021 -0.00000027
                   Z  0.00000043 -0.00000062 -0.00000004  0.00000005  0.00000025
               TOTAL  0.00000071  0.00000109  0.00000140  0.00000026  0.00000049

   ROT. SAYVETZ    X -0.00039518  0.00255972 -0.00034778 -0.00294572  0.00111708
                   Y -0.00140406 -0.00073146  0.00147988  0.00067899 -0.00002500
                   Z -0.00069050  0.00050017  0.00048961 -0.00064669  0.00033549
               TOTAL  0.00161380  0.00270876  0.00159709  0.00309136  0.00116664

                           56          57          58          59          60
       FREQUENCY:      3718.46     3722.86     3736.31     3782.79     3784.31  
        SYMMETRY:         A           A           A           A           A   
    REDUCED MASS:      1.09806     1.09987     1.10614     1.11775     1.11828
    IR INTENSITY:      0.24025     0.05622     0.04481     0.02116     0.01933

  1   C            X  0.00080572 -0.00003038 -0.02640543 -0.00004533  0.00002741
                   Y -0.00030613 -0.00281908 -0.04021260  0.00001431 -0.00001618
                   Z -0.00003582 -0.00119085 -0.01975640 -0.00012051  0.00009056
  2   C            X -0.02276889 -0.06529261  0.00763866  0.00004601 -0.00061264
                   Y  0.00806497  0.02404852 -0.00273968 -0.00002878  0.00029740
                   Z -0.00607485 -0.01880798  0.00217989  0.00002134 -0.00031168
  3   C            X -0.00206141 -0.00279454  0.00303707  0.00029632 -0.00041809
                   Y  0.01545978  0.02724514 -0.00732269  0.00056369  0.00014953
                   Z  0.00339469  0.00555801 -0.00119055  0.00018011 -0.00016561
  4   C            X  0.00048750  0.00099347  0.00134800  0.00004167  0.00000222
                   Y -0.00004527 -0.00020588  0.00168120 -0.00003327 -0.00005404
                   Z  0.00001640  0.00008072  0.00082921  0.00009966  0.00009640
  5   O            X -0.00007230 -0.00011097 -0.00006368 -0.00001939 -0.00001447
                   Y  0.00005067  0.00009730 -0.00031857  0.00001555  0.00002513
                   Z  0.00001443  0.00001608 -0.00013378 -0.00000111 -0.00000035
  6   H            X  0.07668492  0.14251748 -0.02031899 -0.00334080  0.00042174
                   Y  0.07544624  0.13958195 -0.01996773 -0.00283897  0.00090741
                   Z  0.07589752  0.14285303 -0.02050072 -0.00288541  0.00095101
  7   C            X -0.00640027 -0.01139621  0.00197874 -0.00001648 -0.00039814
                   Y -0.00883861 -0.01647548  0.00244306  0.00050399  0.00020450
                   Z -0.00663751 -0.01297145  0.00194122  0.00033384 -0.00007890
  8   C            X  0.01030533 -0.00375383  0.00015640  0.04553687  0.04932720
                   Y  0.00213452  0.00021621 -0.00004433 -0.04454210 -0.04947850
                   Z  0.00402584 -0.00074006 -0.00001953  0.00114591  0.00085945
  9   C            X -0.06853685  0.02619472 -0.00054590  0.00000658  0.00632906
                   Y  0.02731604 -0.01067516  0.00025941  0.00089390 -0.00254325
                   Z -0.02685069  0.01075861 -0.00028607  0.00031225  0.00282100
 10   C            X  0.00793279 -0.00332155  0.00010333 -0.06286641  0.05697463
                   Y -0.00797796  0.00174257 -0.00010356 -0.01010116  0.00995812
                   Z -0.00059429 -0.00007392 -0.00008930 -0.02884464  0.02651331
 11   H            X  0.00996419  0.00260973  0.00063945  0.27762766 -0.25447773
                   Y  0.01126245  0.00193744  0.00086129  0.27177315 -0.24819100
                   Z  0.00858132  0.00250705  0.00129015  0.30721389 -0.28077514
 12   H            X -0.09047714  0.03210651 -0.00100397  0.46202544 -0.41487939
                   Y  0.02753921 -0.00930887  0.00048312 -0.15492223  0.13997753
                   Z -0.00674364  0.00147423 -0.00013199  0.03310415 -0.02994626
 13   H            X  0.77243977 -0.29816156  0.00655268  0.00133779 -0.07754848
                   Y -0.29783974  0.11505105 -0.00250648 -0.00495800  0.03025551
                   Z  0.28111178 -0.10873663  0.00232684 -0.00097193 -0.02945747
 14   H            X -0.09245528  0.03302458 -0.00192588 -0.43165537 -0.46707937
                   Y  0.02014125 -0.00685966  0.00030064  0.08372390  0.09011833
                   Z -0.00978782  0.00264251 -0.00009122 -0.05171170 -0.05672517
 15   H            X  0.00312698  0.00155274 -0.00013035 -0.10485844 -0.11637517
                   Y -0.01347032 -0.00451137  0.00052764  0.43979759  0.48471325
                   Z -0.00364813 -0.00037785  0.00002815  0.03617200  0.03993059
 16   C            X -0.00416193 -0.01013490 -0.06866038  0.00017678 -0.00008804
                   Y  0.00107540  0.00302548  0.02208651 -0.00005401  0.00003701
                   Z  0.00029787  0.00060385  0.00499534 -0.00004659 -0.00001656
 17   H            X  0.04760068  0.11564718  0.75235910 -0.00188684  0.00092856
                   Y -0.01065682 -0.02580811 -0.16807956  0.00028894 -0.00017785
                   Z -0.00139316 -0.00356440 -0.02410809  0.00019193 -0.00006152
 18   H            X -0.00323222  0.01481548  0.33267488  0.00044845 -0.00035886
                   Y -0.00263680  0.01793930  0.37196300  0.00036472 -0.00032146
                   Z -0.00126858  0.00929772  0.19104266  0.00028350 -0.00017793
 19   H            X  0.24699829  0.72448283 -0.08090335 -0.00053881  0.00617442
                   Y -0.08780280 -0.25816071  0.02913224  0.00012338 -0.00216694
                   Z  0.06299361  0.18575382 -0.02090831 -0.00016813  0.00151083
 20   H            X  0.03541010  0.06111820 -0.01831862  0.00146894  0.00005599
                   Y -0.16194407 -0.28220151  0.07754190 -0.00511587 -0.00203011
                   Z -0.01949526 -0.03227119  0.00886818 -0.00069509 -0.00016184

 TRANS. SAYVETZ    X  0.00000017  0.00000066 -0.00000036 -0.00000003 -0.00000009
                   Y -0.00000069 -0.00000033 -0.00000018  0.00000009  0.00000009
                   Z  0.00000049  0.00000018 -0.00000004  0.00000001  0.00000004
               TOTAL  0.00000087  0.00000076  0.00000040  0.00000010  0.00000014

   ROT. SAYVETZ    X  0.00031712  0.00022447 -0.00013315  0.00176244  0.00072320
                   Y  0.00078737  0.00023597 -0.00013821 -0.00084604  0.00314671
                   Z  0.00041375  0.00017480 -0.00009784  0.00024814  0.00140105
               TOTAL  0.00094430  0.00036963  0.00021541  0.00197067  0.00351962

 REFERENCE ON SAYVETZ CONDITIONS - A. SAYVETZ, J.CHEM.PHYS., 7, 383-389(1939).

 NOTE - THE MODES J,K ARE ORTHONORMALIZED ACCORDING TO
 SUM ON I   M(I) * (X(I,J)*X(I,K) + Y(I,J)*Y(I,K) + Z(I,J)*Z(I,K)) = DELTA(J,K)

  MODE FREQ(CM**-1)  SYMMETRY  RED. MASS  IR INTENS.
     1    1057.094    A       10.095304    0.011753
     2       0.126    A        6.563751    0.000148
     3       0.013    A        6.702682    0.000000
     4       0.004    A        6.703711    0.000000
     5       1.346    A        4.742956    0.017088
     6      44.876    A        6.106368    0.021691
     7      56.043    A        4.130377    0.000107
     8     120.108    A        5.153067    0.033800
     9     224.426    A        3.224699    0.028251
    10     252.865    A        3.706087    0.025486
    11     380.181    A        4.915314    0.005452
    12     384.727    A        6.879665    0.153917
    13     469.648    A        3.034094    0.050403
    14     485.684    A        2.215318    0.008899
    15     498.067    A        4.577023    0.165708
    16     570.179    A        2.513854    0.078149
    17     604.379    A        2.414920    0.125686
    18     617.534    A        5.301749    0.023240
    19     682.033    A        6.090313    0.012604
    20     831.514    A        3.831281    0.099852
    21     853.846    A        3.364394    0.167890
    22     920.633    A        1.493848    0.513918
    23     934.942    A        1.809680    0.583542
    24     963.807    A        1.471040    1.268942
    25     977.852    A        1.458326    0.233536
    26    1032.628    A        1.228740    0.137093
    27    1088.184    A        1.825994    0.105998
    28    1106.681    A        3.506459    0.006835
    29    1162.499    A        1.673125    0.018177
    30    1183.348    A        1.080311    0.015764
    31    1208.619    A        1.265889    0.010220
    32    1221.925    A        1.463926    0.249017
    33    1231.105    A        1.220691    0.122844
    34    1246.096    A        1.330394    0.029249
    35    1312.670    A        1.226741    0.022169
    36    1337.354    A        1.210441    0.119405
    37    1354.944    A        1.134784    0.029794
    38    1364.118    A        1.277315    0.152347
    39    1423.675    A        1.848422    0.645625
    40    1459.521    A        1.355930    0.121746
    41    1483.592    A        1.918035    0.018668
    42    1601.364    A        1.628803    0.190540
    43    1642.478    A        1.723890    0.107092
    44    1666.257    A        1.559918    0.039534
    45    1735.736    A        2.729938    0.199540
    46    1761.736    A        1.801072    0.049442
    47    1814.311    A        1.273791    0.221165
    48    1867.717    A        2.724454    0.059628
    49    2004.630    A        7.038195    0.056082
    50    2073.375    A       10.417991    1.825602
    51    3631.380    A        1.062885    0.131048
    52    3635.518    A        1.064869    0.091780
    53    3691.469    A        1.091270    0.203656
    54    3697.731    A        1.093785    0.111564
    55    3706.359    A        1.091653    0.489073
    56    3718.459    A        1.098063    0.240245
    57    3722.860    A        1.099866    0.056224
    58    3736.312    A        1.106144    0.044813
    59    3782.789    A        1.117752    0.021164
    60    3784.315    A        1.118281    0.019332

     -------------------------------
     THERMOCHEMISTRY AT T=  298.15 K
     -------------------------------

 USING IDEAL GAS, RIGID ROTOR, HARMONIC NORMAL MODE APPROXIMATIONS.
 P=  1.01325E+05 PASCAL.
 ALL FREQUENCIES ARE SCALED BY   1.00000
 THE MOMENTS OF INERTIA ARE (IN AMU*BOHR**2)
            891.70060          1271.00340          1538.51610
 THE ROTATIONAL SYMMETRY NUMBER IS  1.0
 THE ROTATIONAL CONSTANTS ARE (IN GHZ)
      2.02208     1.41863     1.17197
   1 IMAGINARY FREQUENCY VIBRATION(S) IS(ARE) EXCLUDED
     FROM THE FOLLOWING THERMOCHEMICAL ANALYSIS.
      8 -     60 VIBRATIONAL MODES ARE USED IN THERMOCHEMISTRY.
 THE HARMONIC ZERO POINT ENERGY IS (SCALED BY   1.000)
        0.191968 HARTREE/MOLECULE    42132.089180 CM**-1/MOLECULE 
      120.461809 KCAL/MOL              504.012208 KJ/MOL

               Q               LN Q
 ELEC.     1.00000E+00       0.000000
 TRANS.    6.10192E+07      17.926699
 ROT.      4.72689E+05      13.066193
 VIB.      1.30202E+01       2.566502
 TOT.      3.75543E+14      33.559394

              E         H         G         CV        CP        S
           KJ/MOL    KJ/MOL    KJ/MOL   J/MOL-K   J/MOL-K   J/MOL-K
 ELEC.      0.000     0.000     0.000     0.000     0.000     0.000
 TRANS.     3.718     6.197   -44.439    12.472    20.786   169.836
 ROT.       3.718     3.718   -32.390    12.472    12.472   121.109
 VIB.     515.130   515.130   497.650    93.733    93.733    58.629
 TOTAL    522.567   525.046   420.820   118.677   126.991   349.574
 VIB. THERMAL CORRECTION E(T)-E(0) = H(T)-H(0) =     11118.093 J/MOL

              E         H         G         CV        CP        S
         KCAL/MOL  KCAL/MOL  KCAL/MOL CAL/MOL-K CAL/MOL-K CAL/MOL-K
 ELEC.      0.000     0.000     0.000     0.000     0.000     0.000
 TRANS.     0.889     1.481   -10.621     2.981     4.968    40.592
 ROT.       0.889     0.889    -7.741     2.981     2.981    28.946
 VIB.     123.119   123.119   118.941    22.403    22.403    14.013
 TOTAL    124.897   125.489   100.579    28.364    30.352    83.550
 VIB. THERMAL CORRECTION E(T)-E(0) = H(T)-H(0) =      2657.288 CAL/MOL

     *******************************************************
     * THIS IS NOT A STATIONARY POINT ON THE MOLECULAR PES *
     *     THE VIBRATIONAL ANALYSIS IS NOT VALID !!!       *
     *******************************************************
 ......END OF NORMAL COORDINATE ANALYSIS......
 STEP CPU TIME =     0.01 TOTAL CPU TIME =        145.3 (      2.4 MIN)
 TOTAL WALL CLOCK TIME=        145.9 SECONDS, CPU UTILIZATION IS    99.61%
               580000  WORDS OF DYNAMIC MEMORY USED
 EXECUTION OF GAMESS TERMINATED NORMALLY Sat Nov  6 20:04:51 2021
 DDI: 263640 bytes (0.3 MB / 0 MWords) used by master data server.

 ----------------------------------------
 CPU timing information for all processes
 ========================================
 0: 142.829 + 2.529 = 145.358
 ----------------------------------------
 ddikick.x: exited gracefully.
----- accounting info -----
Files used on the master node chemcompute-node-0.novalocal were:
-rw-r--r--. 1 chemcomp chemcomp     1348 Nov  6 20:02 /scratch/301770/336810.F05
-rw-rw-r--. 1 chemcomp chemcomp 18181616 Nov  6 20:04 /scratch/301770/336810.F08
-rw-rw-r--. 1 chemcomp chemcomp 85196800 Nov  6 20:04 /scratch/301770/336810.F10
-rw-rw-r--. 1 chemcomp chemcomp   878880 Nov  6 20:04 /scratch/301770/336810.F18
Sat Nov  6 20:04:54 UTC 2021
0.182u 0.102s 2:29.66 0.1%	0+0k 8+216io 0pf+0w
Finishing Up...
Looking for IR data...
Looking for Raman data...
vibramans not found
Looking for thermodynamics data...
Looking for UV-Vis data...
301770
