----- GAMESS execution script 'rungms' -----
This job is running on host chemcompute-node-0.novalocal
under operating system Linux at Sun Nov 14 16:41:04 UTC 2021
SLURM has assigned the following compute nodes to this run:
chemcompute-node-0
Available scratch disk space (Kbyte units) at beginning of the job is
Filesystem     1K-blocks     Used Available Use% Mounted on
/dev/sda1       62903276 16664168  46239108  27% /
GAMESS temporary binary files will be written to /scratch/306482
GAMESS supplementary output files will be written to /data/slurm/342493
Copying input file 342493.inp to your run's scratch directory...
The generated host list is
chemcompute-node-0.novalocal

 Distributed Data Interface kickoff program.
 Initiating 1 compute processes on 1 nodes to run the following command:
 /data/gamess-2019R1-ddi/gamess.00.x 342493 

          ******************************************************
          *         GAMESS VERSION = 30 JUN 2019 (R1)          *
          *             FROM IOWA STATE UNIVERSITY             *
          * M.W.SCHMIDT, K.K.BALDRIDGE, J.A.BOATZ, S.T.ELBERT, *
          *   M.S.GORDON, J.H.JENSEN, S.KOSEKI, N.MATSUNAGA,   *
          *          K.A.NGUYEN, S.J.SU, T.L.WINDUS,           *
          *       TOGETHER WITH M.DUPUIS, J.A.MONTGOMERY       *
          *         J.COMPUT.CHEM.  14, 1347-1363(1993)        *
          **************** 64 BIT LINUX VERSION ****************

  SINCE 1993, STUDENTS AND POSTDOCS WORKING AT IOWA STATE UNIVERSITY
  AND ALSO IN THEIR VARIOUS JOBS AFTER LEAVING ISU HAVE MADE IMPORTANT
  CONTRIBUTIONS TO THE CODE:
     IVANA ADAMOVIC, CHRISTINE AIKENS, YURI ALEXEEV, POOJA ARORA,
     ANDREY ASADCHEV, ROB BELL, PRADIPTA BANDYOPADHYAY, JONATHAN BENTZ,
     COLLEEN BERTONI, BRETT BODE, KURT BRORSEN, CALEB CARLIN, GALINA CHABAN,
     WEI CHEN, CHEOL HO CHOI, PAUL DAY, ALBERT DEFUSCO, NUWAN DESILVA,
     TIM DUDLEY, DMITRI FEDOROV, ALEX FINDLATER, GRAHAM FLETCHER, 
     MARK FREITAG, KURT GLAESEMANN, ANASTASIA GUNINA,
     DAN KEMP, GRANT MERRILL, NORIYUKI MINEZAWA, JONATHAN MULLIN,
     TAKESHI NAGATA, SEAN NEDD, HEATHER NETZLOFF, BOSILJKA NJEGIC, RYAN OLSON,
     MIKE PAK, BUU PHAM,
     SPENCER PRUITT, LUKE ROSKOP, JIM SHOEMAKER, LYUDMILA SLIPCHENKO,
     TONY SMITH, SAROM SOK LEANG, JIE SONG, TETSUYA TAKETSUGU, SIMON WEBB,
     PENG XU, SOOHAENG YOO, FEDERICO ZAHARIEV

  ADDITIONAL CODE HAS BEEN PROVIDED BY COLLABORATORS IN OTHER GROUPS:
     IOWA STATE UNIVERSITY:
          JOE IVANIC, AARON WEST, LAIMUTIS BYTAUTAS, KLAUS RUEDENBERG
     UNIVERSITY OF TOKYO: KIMIHIKO HIRAO, TAKAHITO NAKAJIMA,
          TAKAO TSUNEDA, MUNEAKI KAMIYA, SUSUMU YANAGISAWA,
          KIYOSHI YAGI, MAHITO CHIBA, SEIKEN TOKURA, NAOAKI KAWAKAMI
     UNIVERSITY OF AARHUS: FRANK JENSEN
     UNIVERSITY OF IOWA: VISVALDAS KAIRYS, HUI LI
     NATIONAL INST. OF STANDARDS AND TECHNOLOGY: WALT STEVENS, DAVID GARMER
     UNIVERSITY OF PISA: BENEDETTA MENNUCCI, JACOPO TOMASI
     UNIVERSITY OF MEMPHIS: HENRY KURTZ, PRAKASHAN KORAMBATH
     UNIVERSITY OF ALBERTA: TOBY ZENG, MARIUSZ KLOBUKOWSKI
     UNIVERSITY OF NEW ENGLAND: MARK SPACKMAN
     MIE UNIVERSITY: HIROAKI UMEDA
     NAT. INST. OF ADVANCED INDUSTRIAL SCIENCE AND TECHNOLOGY: KAZUO KITAURA
     MICHIGAN STATE UNIVERSITY:
          KAROL KOWALSKI, MARTA WLOCH, JEFFREY GOUR, JESSE LUTZ,
          WEI LI, JUN SHEN, J. EMILIANO DEUSTUA, PIOTR PIECUCH
     UNIVERSITY OF MINNESOTA:
          YINAN SHU
     UNIVERSITY OF SILESIA: MONIKA MUSIAL, STANISLAW KUCHARSKI
     FACULTES UNIVERSITAIRES NOTRE-DAME DE LA PAIX:
          OLIVIER QUINET, BENOIT CHAMPAGNE
     UNIVERSITY OF CALIFORNIA - SANTA BARBARA: BERNARD KIRTMAN
     INSTITUTE FOR MOLECULAR SCIENCE:
          KAZUYA ISHIMURA, MICHIO KATOUDA, AND SHIGERU NAGASE
     UNIVERSITY OF NOTRE DAME: ANNA POMOGAEVA, DAN CHIPMAN
     KYUSHU UNIVERSITY:
          HARUYUKI NAKANO,
          FENG LONG GU, JACEK KORCHOWIEC, MARCIN MAKOWSKI, AND YURIKO AOKI,
          HIROTOSHI MORI AND EISAKU MIYOSHI
     PENNSYLVANIA STATE UNIVERSITY:
          TZVETELIN IORDANOV, CHET SWALINA, JONATHAN SKONE,
          SHARON HAMMES-SCHIFFER
     WASEDA UNIVERSITY:
          MASATO KOBAYASHI, TOMOKO AKAMA, TSUGUKI TOUMA,
          TAKESHI YOSHIKAWA, YASUHIRO IKABATA, JUNJI SEINO,
          YUYA NAKAJIMA, HIROMI NAKAI
     NANJING UNIVERSITY: SHUHUA LI
     UNIVERSITY OF NEBRASKA:
          PEIFENG SU, DEJUN SI, NANDUN THELLAMUREGE, YALI WANG, HUI LI
     UNIVERSITY OF ZURICH: ROBERTO PEVERATI, KIM BALDRIDGE
     N. COPERNICUS UNIVERSITY AND JACKSON STATE UNIVERSITY:
          MARIA BARYSZ
     UNIVERSITY OF COPENHAGEN: Jimmy Kromann, CASPER STEINMANN
     TOKYO INSTITUTE OF TECHNOLOGY: HIROYA NAKATA
     NAGOYA UNIVERSITY: YOSHIO NISHIMOTO, STEPHAN IRLE
     MOSCOW STATE UNIVERSITY: VLADIMIR MIRONOV
     A.N.NESMEYANOV INSTITUTE OF ORGANOELEMENT COMPOUNDS OF RUSSIAN ACADEMY OF SCIENCES:
          IGOR S. GERASIMOV

 EXECUTION OF GAMESS BEGUN Sun Nov 14 16:41:05 2021

            ECHO OF THE FIRST FEW INPUT CARDS -
 INPUT CARD>!   File created by the GAMESS Input Deck Generator Plugin for Avogadro         
 INPUT CARD> $BASIS GBASIS=STO NGAUSS=3 $END                                                
 INPUT CARD> $CONTRL SCFTYP=RHF RUNTYP=SADPOINT NZVAR=1 mult=1  ICHARG=0 $END               
 INPUT CARD> $STATPT hssend=.t. OPTTOL=0.0005 NSTEP=50 $END                                 
 INPUT CARD> $STATPT HESS=calc ihrep=5 $END                                                 
 INPUT CARD> $FORCE nvib=2 $END                                                             
 INPUT CARD> $ZMAT DLC=.t. auto=.t. nonvdw(1)=4,14,14,15,4,5,14,5,15,5 $END                 
 INPUT CARD>!$ZMAT IFZMAT(1)=1,4,14,1,14,15 fvalue(1)=2.01,2.20 $END                        
 INPUT CARD>                                                                                
 INPUT CARD> $DATA                                                                          
 INPUT CARD>Title                                                                           
 INPUT CARD>C1                                                                              
 INPUT CARD>C     6.0    -0.41715565     1.28843117     0.69012094                          
 INPUT CARD>C     6.0    -1.13401163    -0.06117443     0.41162744                          
 INPUT CARD>C     6.0    -0.24407798    -0.77571130    -0.63598794                          
 INPUT CARD>C     6.0     1.16849530    -0.18563609    -0.37477449                          
 INPUT CARD>C     6.0     0.96011442     1.09247649     0.09071567                          
 INPUT CARD>H     1.0    -0.39079279     1.52715170     1.75451040                          
 INPUT CARD>H     1.0    -0.92147440     2.11820054     0.19205140                          
 INPUT CARD>H     1.0    -2.14930987     0.07985246     0.05227903                          
 INPUT CARD>H     1.0    -1.18259883    -0.65329427     1.32196844                          
 INPUT CARD>H     1.0    -0.55415034    -0.51880330    -1.64713824                          
 INPUT CARD>H     1.0    -0.27243164    -1.85837162    -0.53623056                          
 INPUT CARD>H     1.0     1.85797405    -0.29657519    -1.20571578                          
 INPUT CARD>H     1.0     1.73170662     1.84848738     0.16210480                          
 INPUT CARD>Br    35.0     1.97592998    -1.13364637     0.93878013                         
 INPUT CARD>Br    35.0     2.88558221    -2.79627776     2.05600405                         
 INPUT CARD> $END                                                                           
    1000000 WORDS OF MEMORY AVAILABLE

     BASIS OPTIONS
     -------------
     GBASIS=STO          IGAUSS=       3      POLAR=NONE    
     NDFUNC=       0     NFFUNC=       0     DIFFSP=       F
     NPFUNC=       0      DIFFS=       F     BASNAM=        


     RUN TITLE
     ---------
 Title                                                                           

 THE POINT GROUP OF THE MOLECULE IS C1      
 THE ORDER OF THE PRINCIPAL AXIS IS     0

 ATOM      ATOMIC                      COORDINATES (BOHR)
           CHARGE         X                   Y                   Z
 C           6.0    -0.7883098727        2.4347818653        1.3041394750
 C           6.0    -2.1429712476       -0.1156029102        0.7778630706
 C           6.0    -0.4612405018       -1.4658818026       -1.2018429381
 C           6.0     2.2081359349       -0.3508013435       -0.7082210933
 C           6.0     1.8143531707        2.0644812141        0.1714277591
 H           1.0    -0.7384912911        2.8858982547        3.3155438986
 H           1.0    -1.7413341207        4.0028186076        0.3629245216
 H           1.0    -4.0616067170        0.1508992688        0.0987930416
 H           1.0    -2.2347877421       -1.2345471596        2.4981581160
 H           1.0    -1.0471922986       -0.9803960785       -3.1126399375
 H           1.0    -0.5148211500       -3.5118131452       -1.0133288246
 H           1.0     3.5110618468       -0.5604458439       -2.2784724433
 H           1.0     3.2724510029        3.4931346400        0.3063336533
 BR         35.0     3.7339662331       -2.1422810063        1.7740372084
 BR         35.0     5.4529596919       -5.2841987520        3.8852842841

          INTERNUCLEAR DISTANCES (ANGS.)
          ------------------------------

                1 C          2 C          3 C          4 C          5 C     

   1 C       0.0000000    1.5533436 *  2.4595131 *  2.4127092 *  1.5147798 *
   2 C       1.5533436 *  0.0000000    1.5492072 *  2.4362793 *  2.4123140 *
   3 C       2.4595131 *  1.5492072 *  0.0000000    1.5529921 *  2.3384403 *
   4 C       2.4127092 *  2.4362793 *  1.5529921 *  0.0000000    1.3761088 *
   5 C       1.5147798 *  2.4123140 *  2.3384403 *  1.3761088 *  0.0000000  
   6 H       1.0911496 *  2.2087301 *  3.3225270    3.1462478    2.1868026 *
   7 H       1.0912964 *  2.2006956 *  3.0853267    3.1617919    2.1454033 *
   8 H       2.2063234 *  1.0862092 *  2.1990019 *  3.3556952    3.2703829  
   9 H       2.1806953 *  1.0870544 *  2.1747185 *  2.9368834 *  3.0257097  
  10 H       2.9576417 *  2.1872767 *  1.0883802 *  2.1673527 *  2.8123578 *
  11 H       3.3804217    2.2069600 *  1.0876161 *  2.2136808 *  3.2587936  
  12 H       3.3589667    3.4092801    2.2299740 *  1.0854270 *  2.1015116 *
  13 H       2.2825584 *  3.4527396    3.3803987    2.1778670 *  1.0825911 *
  14 BR      3.4139639    3.3316397    2.7452591 *  1.8100000 *  2.5897331 *
  15 BR      5.4275741    5.1324360    4.5961160    3.9588536    4.7636325  

                6 H          7 H          8 H          9 H         10 H     

   1 C       1.0911496 *  1.0912964 *  2.2063234 *  2.1806953 *  2.9576417 *
   2 C       2.2087301 *  2.2006956 *  1.0862092 *  1.0870544 *  2.1872767 *
   3 C       3.3225270    3.0853267    2.1990019 *  2.1747185 *  1.0883802 *
   4 C       3.1462478    3.1617919    3.3556952    2.9368834 *  2.1673527 *
   5 C       2.1868026 *  2.1454033 *  3.2703829    3.0257097    2.8123578 *
   6 H       0.0000000    1.7527806 *  2.8433517 *  2.3597445 *  3.9728870  
   7 H       1.7527806 *  0.0000000    2.3836902 *  3.0043438    3.2359442  
   8 H       2.8433517 *  2.3836902 *  0.0000000    1.7561736 *  2.4064376 *
   9 H       2.3597445 *  3.0043438    1.7561736 *  0.0000000    3.0378660  
  10 H       3.9728870    3.2359442    2.4064376 *  3.0378660    0.0000000  
  11 H       4.0894097    4.0944813    2.7614721 *  2.3944768 *  1.7629307 *
  12 H       4.1407573    3.9383028    4.2169388    3.9700780    2.4622313 *
  13 H       2.6728292 *  2.6670230 *  4.2664294    4.0121530    3.7553385  
  14 BR      3.6533052    4.4189438    4.3904518    3.2177439    3.6696474  
  15 BR      5.4330078    6.4899997    6.1349146    4.6563165    5.5436371  

               11 H         12 H         13 H         14 BR        15 BR    

   1 C       3.3804217    3.3589667    2.2825584 *  3.4139639    5.4275741  
   2 C       2.2069600 *  3.4092801    3.4527396    3.3316397    5.1324360  
   3 C       1.0876161 *  2.2299740 *  3.3803987    2.7452591 *  4.5961160  
   4 C       2.2136808 *  1.0854270 *  2.1778670 *  1.8100000 *  3.9588536  
   5 C       3.2587936    2.1015116 *  1.0825911 *  2.5897331 *  4.7636325  
   6 H       4.0894097    4.1407573    2.6728292 *  3.6533052    5.4330078  
   7 H       4.0944813    3.9383028    2.6670230 *  4.4189438    6.4899997  
   8 H       2.7614721 *  4.2169388    4.2664294    4.3904518    6.1349146  
   9 H       2.3944768 *  3.9700780    4.0121530    3.2177439    4.6563165  
  10 H       1.7629307 *  2.4622313 *  3.7553385    3.6696474    5.5436371  
  11 H       0.0000000    2.7250774 *  4.2714220    2.7849620 *  4.1919446  
  12 H       2.7250774 *  0.0000000    2.5471887 *  2.3050953 *  4.2359542  
  13 H       4.2714220    2.5471887 *  0.0000000    3.0912766    5.1470503  
  14 BR      2.7849620 *  2.3050953 *  3.0912766    0.0000000    2.1999999 *
  15 BR      4.1919446    4.2359542    5.1470503    2.1999999 *  0.0000000  

  * ... LESS THAN  3.000


     ATOMIC BASIS SET
     ----------------
 THE CONTRACTED PRIMITIVE FUNCTIONS HAVE BEEN UNNORMALIZED
 THE CONTRACTED BASIS FUNCTIONS ARE NOW NORMALIZED TO UNITY

  SHELL TYPE  PRIMITIVE        EXPONENT          CONTRACTION COEFFICIENT(S)

 C         

      1   S       1            71.6168373    0.154328967295
      1   S       2            13.0450963    0.535328142282
      1   S       3             3.5305122    0.444634542185

      2   L       4             2.9412494   -0.099967229187    0.155916274999
      2   L       5             0.6834831    0.399512826089    0.607683718598
      2   L       6             0.2222899    0.700115468880    0.391957393099

 C         

      3   S       7            71.6168373    0.154328967295
      3   S       8            13.0450963    0.535328142282
      3   S       9             3.5305122    0.444634542185

      4   L      10             2.9412494   -0.099967229187    0.155916274999
      4   L      11             0.6834831    0.399512826089    0.607683718598
      4   L      12             0.2222899    0.700115468880    0.391957393099

 C         

      5   S      13            71.6168373    0.154328967295
      5   S      14            13.0450963    0.535328142282
      5   S      15             3.5305122    0.444634542185

      6   L      16             2.9412494   -0.099967229187    0.155916274999
      6   L      17             0.6834831    0.399512826089    0.607683718598
      6   L      18             0.2222899    0.700115468880    0.391957393099

 C         

      7   S      19            71.6168373    0.154328967295
      7   S      20            13.0450963    0.535328142282
      7   S      21             3.5305122    0.444634542185

      8   L      22             2.9412494   -0.099967229187    0.155916274999
      8   L      23             0.6834831    0.399512826089    0.607683718598
      8   L      24             0.2222899    0.700115468880    0.391957393099

 C         

      9   S      25            71.6168373    0.154328967295
      9   S      26            13.0450963    0.535328142282
      9   S      27             3.5305122    0.444634542185

     10   L      28             2.9412494   -0.099967229187    0.155916274999
     10   L      29             0.6834831    0.399512826089    0.607683718598
     10   L      30             0.2222899    0.700115468880    0.391957393099

 H         

     11   S      31             3.4252509    0.154328967295
     11   S      32             0.6239137    0.535328142282
     11   S      33             0.1688554    0.444634542185

 H         

     12   S      34             3.4252509    0.154328967295
     12   S      35             0.6239137    0.535328142282
     12   S      36             0.1688554    0.444634542185

 H         

     13   S      37             3.4252509    0.154328967295
     13   S      38             0.6239137    0.535328142282
     13   S      39             0.1688554    0.444634542185

 H         

     14   S      40             3.4252509    0.154328967295
     14   S      41             0.6239137    0.535328142282
     14   S      42             0.1688554    0.444634542185

 H         

     15   S      43             3.4252509    0.154328967295
     15   S      44             0.6239137    0.535328142282
     15   S      45             0.1688554    0.444634542185

 H         

     16   S      46             3.4252509    0.154328967295
     16   S      47             0.6239137    0.535328142282
     16   S      48             0.1688554    0.444634542185

 H         

     17   S      49             3.4252509    0.154328967295
     17   S      50             0.6239137    0.535328142282
     17   S      51             0.1688554    0.444634542185

 H         

     18   S      52             3.4252509    0.154328967295
     18   S      53             0.6239137    0.535328142282
     18   S      54             0.1688554    0.444634542185

 BR        

     19   S      55          2629.9974710    0.154328967295
     19   S      56           479.0573224    0.535328142282
     19   S      57           129.6516070    0.444634542185

     20   L      58           219.8350255   -0.099967229187    0.155916274999
     20   L      59            51.0849322    0.399512826089    0.607683718598
     20   L      60            16.6144055    0.700115468880    0.391957393099

     21   L      61            20.6524416   -0.219620369005    0.010587604289
     21   L      62             5.7619788    0.225595433605    0.595167005266
     21   L      63             2.2551994    0.900398426019    0.462001011973

     22   D      64            22.3657496    0.168659606013
     22   D      65             7.0128139    0.584798481745
     22   D      66             2.7316638    0.405677952331

     23   L      67             1.3960375   -0.308844121382   -0.121546859998
     23   L      68             0.5152256    0.019606411652    0.571522760389
     23   L      69             0.2275291    1.131034441567    0.549894947089

 BR        

     24   S      70          2629.9974710    0.154328967295
     24   S      71           479.0573224    0.535328142282
     24   S      72           129.6516070    0.444634542185

     25   L      73           219.8350255   -0.099967229187    0.155916274999
     25   L      74            51.0849322    0.399512826089    0.607683718598
     25   L      75            16.6144055    0.700115468880    0.391957393099

     26   L      76            20.6524416   -0.219620369005    0.010587604289
     26   L      77             5.7619788    0.225595433605    0.595167005266
     26   L      78             2.2551994    0.900398426019    0.462001011973

     27   D      79            22.3657496    0.168659606013
     27   D      80             7.0128139    0.584798481745
     27   D      81             2.7316638    0.405677952331

     28   L      82             1.3960375   -0.308844121382   -0.121546859998
     28   L      83             0.5152256    0.019606411652    0.571522760389
     28   L      84             0.2275291    1.131034441567    0.549894947089

 TOTAL NUMBER OF BASIS SET SHELLS             =   28
 NUMBER OF CARTESIAN GAUSSIAN BASIS FUNCTIONS =   71
 NUMBER OF ELECTRONS                          =  108
 CHARGE OF MOLECULE                           =    0
 SPIN MULTIPLICITY                            =    1
 NUMBER OF OCCUPIED ORBITALS (ALPHA)          =   54
 NUMBER OF OCCUPIED ORBITALS (BETA )          =   54
 TOTAL NUMBER OF ATOMS                        =   15
 THE NUCLEAR REPULSION ENERGY IS      867.3209711509

     $CONTRL OPTIONS
     ---------------
 SCFTYP=RHF          RUNTYP=SADPOINT     EXETYP=RUN     
 MPLEVL=       0     CITYP =NONE         CCTYP =NONE         VBTYP =NONE    
 DFTTYP=NONE         TDDFT =NONE    
 MULT  =       1     ICHARG=       0     NZVAR =       1     COORD =UNIQUE  
 PP    =NONE         RELWFN=NONE         LOCAL =NONE         NUMGRD=       F
 ISPHER=      -1     NOSYM =       0     MAXIT =      30     UNITS =ANGS    
 PLTORB=       F     MOLPLT=       F     AIMPAC=       F     FRIEND=        
 NPRINT=       7     IREST =       0     GEOM  =INPUT   
 NORMF =       0     NORMP =       0     ITOL  =      20     ICUT  =       9
 INTTYP=BEST         GRDTYP=BEST         QMTTOL= 1.0E-06

     $SYSTEM OPTIONS
     ---------------
  REPLICATED MEMORY=     1000000 WORDS (ON EVERY NODE).
 DISTRIBUTED MEMDDI=           0 MILLION WORDS IN AGGREGATE,
 MEMDDI DISTRIBUTED OVER   1 PROCESSORS IS           0 WORDS/PROCESSOR.
 TOTAL MEMORY REQUESTED ON EACH PROCESSOR=     1000000 WORDS.
 TIMLIM=      525600.00 MINUTES, OR     365.0 DAYS.
 PARALL= F  BALTYP=  DLB     KDIAG=    0  COREFL= F
 MXSEQ2=     300 MXSEQ3=     150  mem10=         0

          ----------------
          PROPERTIES INPUT
          ----------------

     MOMENTS            FIELD           POTENTIAL          DENSITY
 IEMOM =       1   IEFLD =       0   IEPOT =       0   IEDEN =       0
 WHERE =COMASS     WHERE =NUCLEI     WHERE =NUCLEI     WHERE =NUCLEI  
 OUTPUT=BOTH       OUTPUT=BOTH       OUTPUT=BOTH       OUTPUT=BOTH    
 IEMINT=       0   IEFINT=       0                     IEDINT=       0
                                                       MORB  =       0
          EXTRAPOLATION IN EFFECT
          SOSCF IN EFFECT
 ORBITAL PRINTING OPTION: NPREO=     1    71     2     1

     -------------------------------
     INTEGRAL TRANSFORMATION OPTIONS
     -------------------------------
     NWORD  =            0
     CUTOFF = 1.0E-09     MPTRAN =       0
     DIRTRF =       F     AOINTS =DUP     

          ----------------------
          INTEGRAL INPUT OPTIONS
          ----------------------
 NOPK  =       1 NORDER=       0 SCHWRZ=       T


 -----------------------------------------------
  STATISTICS ON AUTOMATIC COORDINATE GENERATION 
 -----------------------------------------------
  NUMBER OF USER SPECIFIED BONDS                             5
  NUMBER OF BONDS                                           20
  NUMBER OF ANGLES                                          55
  NUMBER OF TORSIONS                                        65
  NUMBER OF EXTRA COORD.                                     0
  NUMBER OF EXTRA COORD. FOR CONSTRAINTS                     0
  NUMBER OF CONSTRAINED COORD.                               0

  TOTAL NUMBER OF PRIMITIVES                               140
 -----------------------------------------------

   --- ENCODED Z MATRIX ---
 COORD  TYPE   I   J   K   L   M   N
    1      1    1   2
    2      1    1   7
    3      1    1   5
    4      1    1   6
    5      1    2   9
    6      1    2   3
    7      1    2   8
    8      1    3  10
    9      1    3  11
   10      1    3   4
   11      1    4  14
   12      1    4  12
   13      1    4   5
   14      1    4   5
   15      1    4  14
   16      1    5  13
   17      1    5  15
   18      1    5  14
   19      1   14  15
   20      1   14  15
   21      2    1   2   8
   22      2    1   5   4
   23      2    1   2   9
   24      2    1   2   3
   25      2    1   5  14
   26      2    1   5  15
   27      2    1   5   4
   28      2    1   5  13
   29      2    2   3  11
   30      2    2   3   4
   31      2    2   3  10
   32      2    2   1   7
   33      2    2   1   6
   34      2    2   1   5
   35      2    3   2   9
   36      2    3   4  14
   37      2    3   4   5
   38      2    3   4   5
   39      2    3   4  12
   40      2    3   4  14
   41      2    3   2   8
   42      2    4  14  15
   43      2    4   3  11
   44      2    4   5  15
   45      2    4   3  10
   46      2    4   5  13
   47      2    4   5  14
   48      2    4   5  15
   49      2    4   5  14
   50      2    4   5  13
   51      2    4  14  15
   52      2    4  14  15
   53      2    4  14  15
   54      2    4  14   5
   55      2    4  14   5
   56      2    5   4  14
   57      2    5   4  14
   58      2    5   1   7
   59      2    5  14  15
   60      2    5  15  14
   61      2    5  15  14
   62      2    5  14  15
   63      2    5   4  14
   64      2    5   4  14
   65      2    5   4  12
   66      2    5   1   6
   67      2    5   4  12
   68      2    6   1   7
   69      2    8   2   9
   70      2   10   3  11
   71      2   12   4  14
   72      2   12   4  14
   73      2   13   5  14
   74      2   13   5  15
   75      2   14   5  15
   76      3    1   5  15  14
   77      3    1   5   4   3
   78      3    1   5  14  15
   79      3    1   5  14   4
   80      3    1   2   3   4
   81      3    1   2   3  11
   82      3    1   5   4  12
   83      3    1   2   3  10
   84      3    1   5   4  14
   85      3    2   1   5  15
   86      3    2   3   4   5
   87      3    2   3   4  12
   88      3    2   3   4  14
   89      3    2   1   5  14
   90      3    2   1   5  13
   91      3    2   1   5   4
   92      3    3   2   1   5
   93      3    3   2   1   7
   94      3    3   4   5  14
   95      3    3   4   5  15
   96      3    3   4   5  13
   97      3    3   4  14  15
   98      3    3   4  14   5
   99      3    3   2   1   6
  100      3    4   5  15  14
  101      3    4  14  15   5
  102      3    4   5   1   6
  103      3    4   3   2   8
  104      3    4   5   1   7
  105      3    4   3   2   9
  106      3    4  14   5  15
  107      3    4  14   5  13
  108      3    4   5  14  15
  109      3    5   4  14  15
  110      3    5   1   2   9
  111      3    5   1   2   8
  112      3    5  14   4  12
  113      3    5   4   3  11
  114      3    5   4   3  10
  115      3    6   1   2   8
  116      3    6   1   5  15
  117      3    6   1   2   9
  118      3    6   1   5  14
  119      3    6   1   5  13
  120      3    7   1   5  15
  121      3    7   1   2   8
  122      3    7   1   2   9
  123      3    7   1   5  14
  124      3    7   1   5  13
  125      3    8   2   3  10
  126      3    8   2   3  11
  127      3    9   2   3  10
  128      3    9   2   3  11
  129      3   10   3   4  12
  130      3   10   3   4  14
  131      3   11   3   4  12
  132      3   11   3   4  14
  133      3   12   4   5  15
  134      3   12   4  14  15
  135      3   12   4   5  14
  136      3   12   4   5  13
  137      3   13   5   4  14
  138      3   13   5  15  14
  139      3   13   5  14  15
  140      3   14   4   5  15

          INDEP./SYM. INTERNAL COORDINATES
          --------------------------------
 CRD  1=  -0.1347 (  6) -0.1125 (  7) -0.2728 ( 10)  0.1897 ( 24) -0.1918 ( 25)
          -0.1996 ( 26) -0.2038 ( 30)  0.1121 ( 31) -0.1608 ( 34) -0.1153 ( 35)
          -0.2059 ( 36)  0.1880 ( 37)  0.1880 ( 38) -0.2059 ( 40)  0.1414 ( 45)
           0.1477 ( 58)  0.1048 ( 71)  0.1048 ( 72)  0.1043 ( 79)  0.1353 ( 82)
           0.2222 ( 84) -0.1164 ( 87)  0.1347 ( 90) -0.1488 ( 94) -0.1463 ( 95)
          -0.1086 ( 98)  0.1491 (103)  0.1181 (105) -0.1480 (110) -0.1143 (111)
           0.1198 (137)
 CRD  2=   0.1135 (  2)  0.2282 (  3) -0.1256 (  8) -0.3230 ( 10) -0.1038 ( 11)
          -0.1038 ( 15)  0.1117 ( 21) -0.1357 ( 23)  0.1156 ( 25)  0.1342 ( 26)
           0.1028 ( 29)  0.1163 ( 30) -0.1010 ( 31)  0.1643 ( 32) -0.1440 ( 34)
           0.1066 ( 35) -0.1077 ( 36) -0.1077 ( 40) -0.1013 ( 41) -0.1663 ( 43)
          -0.1216 ( 44) -0.1216 ( 48)  0.1189 ( 59)  0.1189 ( 62)  0.1989 ( 66)
          -0.1473 ( 77) -0.1261 ( 81)  0.1960 ( 85)  0.1375 ( 86)  0.2023 ( 88)
           0.1445 ( 89)  0.1066 ( 91)  0.1042 (116)  0.1087 (120)  0.1391 (130)
 CRD  3=  -0.3121 (  1) -0.1562 (  5) -0.1424 (  7)  0.1549 (  9)  0.2253 ( 10)
           0.1439 ( 13)  0.1439 ( 14) -0.1980 ( 21) -0.1969 ( 23)  0.4042 ( 24)
           0.1116 ( 29) -0.2819 ( 30) -0.1874 ( 34) -0.1353 ( 41)  0.1593 ( 43)
           0.1469 ( 45)  0.1083 ( 58)  0.1250 ( 66)  0.1759 ( 69) -0.1268 ( 70)
           0.1251 ( 86)  0.1223 ( 88)
 CRD  4=   0.4100 (  3)  0.1027 (  4) -0.4413 (  6) -0.1497 (  9) -0.2636 ( 10)
           0.1344 ( 23)  0.1127 ( 24)  0.1041 ( 28) -0.1843 ( 29)  0.1730 ( 30)
          -0.2015 ( 34) -0.1965 ( 35)  0.1427 ( 58)  0.1370 ( 66)  0.1073 ( 70)
          -0.1256 (117)  0.1261 (121)
 CRD  5=  -0.6624 (  1) -0.1149 (  2) -0.1160 (  3) -0.1817 (  4) -0.1069 (  7)
          -0.1518 (  9) -0.2870 ( 10) -0.1029 ( 13) -0.1029 ( 14) -0.1237 ( 16)
          -0.1380 ( 21) -0.1282 ( 32) -0.1436 ( 33)  0.1282 ( 34)  0.1349 ( 41)
           0.1094 (105)  0.1090 (120) -0.1241 (126)  0.1405 (127)
 CRD  6=   0.3276 (  3)  0.1356 (  4)  0.5565 (  6) -0.1896 ( 10) -0.1683 ( 21)
           0.1934 ( 31)  0.2102 ( 41) -0.1536 ( 45)  0.1491 ( 58)  0.1015 ( 77)
           0.1328 ( 83)  0.1351 ( 93) -0.1125 (111) -0.1039 (113)  0.1016 (114)
          -0.1096 (115)  0.1208 (122) -0.1076 (126)  0.1065 (127)  0.1097 (130)
          -0.1078 (131)
 CRD  7=   0.4732 (  3)  0.3897 ( 10)  0.2517 ( 12)  0.3143 ( 16) -0.1152 ( 22)
          -0.1144 ( 25) -0.1118 ( 26) -0.1152 ( 27)  0.1398 ( 28) -0.1808 ( 33)
           0.1011 ( 34)  0.1141 ( 39)  0.1397 ( 45) -0.1282 ( 83) -0.1047 ( 94)
          -0.1066 ( 95)  0.1030 (105) -0.1116 (115)  0.1167 (122)
 CRD  8=   0.1983 (  8) -0.1629 (  9) -0.1204 ( 10)  0.1337 ( 11)  0.1337 ( 15)
          -0.1822 ( 16)  0.1674 ( 21) -0.1777 ( 23)  0.1871 ( 29) -0.1573 ( 31)
           0.2083 ( 35) -0.2015 ( 41)  0.1087 ( 42) -0.2303 ( 43)  0.1066 ( 44)
           0.2085 ( 45)  0.1066 ( 48)  0.1087 ( 51)  0.1087 ( 52)  0.1087 ( 53)
          -0.1079 ( 59) -0.1079 ( 62)  0.1002 ( 66) -0.1082 ( 74) -0.1451 ( 93)
          -0.1383 ( 99)  0.1691 (103)  0.1840 (105) -0.1358 (113) -0.1208 (114)
          -0.1558 (130) -0.1707 (132)
 CRD  9=  -0.3329 (  2)  0.1623 (  4)  0.1111 (  9) -0.1230 ( 10)  0.2216 ( 16)
          -0.1311 ( 17) -0.1320 ( 22) -0.1186 ( 23) -0.1207 ( 25) -0.1226 ( 26)
          -0.1320 ( 27)  0.1092 ( 28)  0.1090 ( 31) -0.1617 ( 33)  0.1100 ( 35)
           0.1147 ( 37)  0.1147 ( 38) -0.1408 ( 39) -0.1495 ( 45) -0.2426 ( 58)
           0.2086 ( 66) -0.1521 ( 80)  0.1454 ( 92) -0.1054 (102) -0.1049 (103)
           0.2213 (110)  0.1943 (111)  0.1207 (114) -0.1160 (116)
 CRD 10=  -0.1313 (  2) -0.5160 (  5)  0.4175 (  7) -0.1059 (  8) -0.1093 ( 12)
           0.1056 ( 21) -0.1285 ( 23)  0.1211 ( 29) -0.1035 ( 31) -0.1207 ( 32)
           0.1062 ( 33) -0.1138 ( 35) -0.1827 ( 43)  0.1132 ( 45)  0.1281 ( 58)
          -0.1635 ( 66) -0.1125 ( 80) -0.2502 ( 81) -0.2119 ( 83)  0.1104 ( 92)
           0.2183 ( 93)  0.2333 ( 99)
 CRD 11=  -0.1924 (  4)  0.1246 (  9) -0.6603 ( 12) -0.1110 ( 13) -0.1110 ( 14)
           0.3123 ( 16)  0.1761 ( 28)  0.1187 ( 29) -0.1032 ( 46) -0.1032 ( 50)
          -0.1129 ( 76) -0.1070 ( 78) -0.1045 ( 79)  0.1001 ( 95) -0.1172 ( 97)
          -0.1363 ( 98) -0.1374 (113)
 CRD 12=  -0.4781 (  8)  0.3711 (  9)  0.1886 ( 12) -0.1592 ( 21)  0.1221 ( 23)
           0.1849 ( 29) -0.2162 ( 31)  0.1075 ( 41) -0.1074 ( 65) -0.1074 ( 67)
           0.1523 ( 87) -0.1794 (103) -0.1599 (105) -0.1511 (113) -0.1722 (114)
          -0.1991 (130) -0.1780 (132)
 CRD 13=  -0.3448 (  2)  0.3862 (  4)  0.1195 (  9)  0.1057 ( 10) -0.1932 ( 13)
          -0.1932 ( 14) -0.2445 ( 16) -0.1502 ( 32)  0.1308 ( 33)  0.1223 ( 39)
          -0.1002 ( 46) -0.1002 ( 50) -0.1579 ( 65) -0.1579 ( 67)  0.1140 ( 82)
           0.1356 (107)  0.1168 (110)  0.1195 (111) -0.1454 (112)  0.1274 (116)
           0.1480 (120)  0.1139 (123)  0.1010 (124) -0.1014 (134)  0.1274 (136)
           0.1066 (138)
 CRD 14=   0.1909 (  2) -0.1335 (  4)  0.1521 (  7) -0.1410 ( 13) -0.1410 ( 14)
          -0.4344 ( 16) -0.1239 ( 17) -0.1332 ( 18)  0.1552 ( 28) -0.1138 ( 29)
           0.1201 ( 31)  0.1607 ( 32) -0.1625 ( 33) -0.1666 ( 46) -0.1666 ( 50)
          -0.1632 ( 73) -0.1563 ( 74) -0.1483 (102) -0.1476 (104)  0.1298 (113)
           0.1298 (114) -0.1689 (116) -0.1724 (118) -0.1682 (120) -0.1717 (123)
           0.1326 (129)  0.1207 (130)  0.1326 (131)  0.1208 (132)
 CRD 15=  -0.1691 (  2)  0.5213 (  5)  0.4943 (  7) -0.3657 (  8) -0.3188 (  9)
           0.1868 ( 69) -0.1333 ( 70)  0.1017 (121) -0.1308 (125)  0.1300 (128)
 CRD 16=  -0.2977 (  2) -0.3324 (  4)  0.2224 (  5)  0.2754 (  7)  0.4331 (  8)
           0.5120 (  9) -0.1037 ( 68)  0.1833 ( 70)  0.1067 (127)
 CRD 17=  -0.2481 (  2) -0.5874 (  4) -0.1813 (  5) -0.2543 (  7) -0.2739 (  8)
           0.1096 ( 21)  0.1114 ( 35)  0.1334 ( 58) -0.1502 ( 68)  0.1233 ( 93)
           0.1060 (117)  0.1561 (121)  0.2311 (122)  0.1355 (125)  0.1792 (126)
 CRD 18=  -0.5211 (  2) -0.1157 (  5) -0.1618 (  7)  0.1168 (  8) -0.2974 (  9)
          -0.1163 ( 21)  0.1622 ( 23) -0.1245 ( 35)  0.1337 ( 41)  0.1205 ( 45)
           0.1405 ( 66) -0.1178 ( 68) -0.1085 ( 83) -0.1412 ( 99) -0.1186 (105)
          -0.1028 (111) -0.2441 (115) -0.2018 (117) -0.1497 (121) -0.1074 (122)
          -0.1691 (125) -0.1183 (126) -0.2420 (127) -0.1912 (128)
 CRD 19=  -0.3107 (  5)  0.2859 (  7) -0.1223 (  8) -0.1213 ( 12)  0.1149 ( 16)
           0.1663 ( 17)  0.1277 ( 18)  0.1019 ( 43)  0.1176 ( 66)  0.1043 ( 80)
           0.1924 ( 81)  0.1694 ( 83) -0.1500 ( 93) -0.1753 ( 99)  0.1502 (103)
           0.1387 (105) -0.1026 (110) -0.1143 (111) -0.2085 (115) -0.1967 (117)
          -0.1831 (121) -0.1714 (122)  0.2153 (125)  0.2383 (126)  0.2039 (127)
           0.2269 (128)
 CRD 20=  -0.1638 (  8)  0.1304 (  9) -0.2147 ( 11) -0.2424 ( 12)  0.1100 ( 13)
           0.1100 ( 14) -0.2147 ( 15) -0.2015 ( 16) -0.1720 ( 17) -0.1274 ( 19)
          -0.1274 ( 20) -0.1523 ( 71) -0.1523 ( 72)  0.1151 ( 77)  0.1967 ( 82)
          -0.2035 ( 87) -0.1033 ( 91) -0.1481 (102) -0.1617 (104) -0.1230 (113)
          -0.1409 (114) -0.1014 (124) -0.2511 (129) -0.1192 (130) -0.2332 (131)
          -0.1013 (132)  0.1109 (133)  0.1117 (135)  0.1303 (136)
 CRD 21=   0.1070 (  2) -0.1004 (  4)  0.1407 ( 11) -0.2051 ( 12)  0.1407 ( 15)
           0.3192 ( 17)  0.2274 ( 18)  0.1169 ( 19)  0.1169 ( 20) -0.1240 ( 28)
           0.1109 ( 46)  0.1109 ( 50) -0.1104 ( 65) -0.1104 ( 67)  0.1770 ( 73)
           0.1657 ( 74)  0.1094 ( 87) -0.1653 ( 90)  0.1001 ( 96) -0.1532 (104)
           0.1165 (110)  0.1196 (111) -0.1688 (119) -0.1370 (120)  0.1170 (121)
           0.1138 (122) -0.1185 (123) -0.2242 (124)  0.1204 (131)  0.1223 (136)
           0.1475 (137)
 CRD 22=  -0.1158 (  4)  0.1413 ( 11)  0.3592 ( 12)  0.1413 ( 15) -0.1551 ( 16)
           0.2007 ( 17)  0.1078 ( 29) -0.1590 ( 39) -0.1998 ( 42) -0.1998 ( 51)
          -0.1998 ( 52) -0.1998 ( 53)  0.2177 ( 59) -0.1176 ( 60) -0.1176 ( 61)
           0.2177 ( 62) -0.1000 ( 75) -0.1393 ( 90)  0.1712 ( 96) -0.1638 (113)
          -0.1536 (119) -0.1084 (124) -0.1230 (131) -0.1229 (132)  0.1134 (134)
 CRD 23=  -0.1284 (  3) -0.1020 (  9) -0.1146 ( 10)  0.2852 ( 12)  0.5169 ( 16)
          -0.1080 ( 17)  0.1233 ( 32)  0.1464 ( 39) -0.1550 ( 46) -0.1550 ( 50)
           0.1031 ( 69)  0.1526 ( 82) -0.1155 (104)  0.1246 (107) -0.1359 (112)
           0.1204 (115) -0.1056 (120) -0.1073 (123)  0.1342 (127)  0.1430 (133)
           0.1353 (135)  0.1478 (136)
 CRD 24=  -0.2457 (  2)  0.1958 (  4)  0.2864 (  5) -0.3240 (  7) -0.2703 (  8)
           0.2431 (  9)  0.1368 ( 11)  0.1368 ( 15)  0.2376 ( 17)  0.1511 ( 19)
           0.1511 ( 20) -0.1012 ( 35) -0.1491 ( 43) -0.1349 ( 66) -0.1421 ( 81)
           0.1293 ( 99)  0.1401 (103)  0.1401 (105) -0.1734 (110)  0.1075 (114)
          -0.1019 (120) -0.1328 (122) -0.1209 (123)  0.1028 (130)
 CRD 25=   0.2129 (  1)  0.1808 (  4) -0.1637 (  6) -0.1421 (  9) -0.1983 ( 21)
          -0.2034 ( 23) -0.1093 ( 29) -0.1160 ( 31)  0.2043 ( 35)  0.2432 ( 41)
          -0.1018 ( 42) -0.1018 ( 51) -0.1018 ( 52) -0.1018 ( 53) -0.1676 ( 68)
           0.1841 ( 70)  0.1140 ( 93) -0.1138 (103) -0.1142 (104)  0.1320 (105)
           0.1337 (110) -0.1851 (111) -0.1445 (114) -0.1985 (115)  0.1203 (117)
          -0.1136 (120)  0.2508 (122) -0.1550 (123) -0.1250 (126)  0.1987 (127)
           0.1208 (128) -0.1278 (129) -0.1837 (130)  0.1131 (131)
 CRD 26=   0.2525 (  1) -0.3063 (  6)  0.3238 ( 10) -0.1509 ( 16) -0.1210 ( 23)
           0.1937 ( 29)  0.1711 ( 31) -0.1919 ( 43) -0.2360 ( 45)  0.1290 ( 69)
          -0.1469 ( 81)  0.1622 ( 83) -0.1017 (103) -0.1411 (113) -0.2213 (126)
           0.2834 (127)  0.1424 (130) -0.1543 (131)
 CRD 27=  -0.1076 (  1)  0.4060 (  3) -0.1323 (  5)  0.1092 (  6) -0.1246 (  7)
           0.1507 ( 10) -0.1409 ( 12) -0.1574 ( 17)  0.1416 ( 32)  0.1686 ( 33)
          -0.1974 ( 58) -0.1666 ( 66)  0.2208 ( 69) -0.1464 ( 93)  0.1131 ( 99)
           0.1217 (102) -0.1197 (103)  0.1027 (111)  0.2048 (115)  0.1323 (116)
           0.1072 (118)  0.1198 (119) -0.2433 (122) -0.1070 (126)  0.1482 (127)
           0.1018 (128) -0.1016 (133)
 CRD 28=   0.1126 (  1) -0.1245 (  4) -0.1264 ( 16)  0.2409 ( 17)  0.2188 ( 19)
           0.2188 ( 20) -0.1494 ( 21) -0.1100 ( 23)  0.1752 ( 28) -0.1153 ( 29)
           0.1067 ( 41)  0.1170 ( 43) -0.1201 ( 46) -0.1201 ( 50) -0.1468 ( 58)
          -0.1188 ( 66)  0.1378 ( 68) -0.1232 ( 87) -0.1525 ( 93)  0.1203 ( 99)
          -0.1162 (103)  0.1302 (107)  0.1895 (117) -0.2078 (121) -0.1795 (125)
           0.1525 (128) -0.1602 (129)  0.1206 (132)  0.1056 (139)
 CRD 29=  -0.1490 (  2)  0.1200 (  5) -0.1121 (  7)  0.1421 ( 11)  0.1664 ( 13)
           0.1664 ( 14)  0.1421 ( 15) -0.1112 ( 17)  0.3227 ( 18) -0.4205 ( 19)
          -0.4205 ( 20) -0.1002 ( 31)  0.1308 ( 68)  0.1217 ( 87)  0.1380 ( 99)
          -0.1003 (102) -0.1586 (119) -0.1022 (121)  0.1366 (131)
 CRD 30=   0.1079 (  1)  0.2749 (  6) -0.2650 (  9)  0.1887 ( 13)  0.1887 ( 14)
           0.1687 ( 17)  0.1760 ( 19)  0.1760 ( 20) -0.1056 ( 31) -0.1223 ( 33)
          -0.1099 ( 35) -0.1074 ( 41) -0.1085 ( 45)  0.1326 ( 68)  0.2397 ( 70)
           0.1822 ( 83) -0.1043 (102)  0.1010 (104) -0.1516 (114)  0.1216 (115)
          -0.1149 (116) -0.1234 (118)  0.1468 (124)  0.1886 (125)  0.1530 (127)
          -0.1601 (129) -0.2176 (130)
 CRD 31=   0.1995 (  2) -0.2124 (  4) -0.3037 (  8) -0.1281 ( 29) -0.1219 ( 32)
           0.1073 ( 33) -0.1328 ( 43)  0.1027 ( 66)  0.1653 ( 70)  0.1024 ( 77)
          -0.2396 ( 81) -0.1009 ( 85) -0.1058 ( 89) -0.1212 ( 90) -0.1651 ( 93)
           0.1540 ( 96) -0.1633 ( 99)  0.1038 (102)  0.1230 (104)  0.1997 (113)
          -0.1367 (115) -0.1386 (121) -0.2039 (126) -0.2023 (128)  0.1861 (131)
           0.1718 (132)  0.1413 (136)  0.1021 (137)
 CRD 32=   0.2067 (  1) -0.1562 (  3)  0.2213 (  6) -0.2471 (  7) -0.1281 ( 10)
          -0.2221 ( 24) -0.1297 ( 29) -0.1115 ( 32)  0.1075 ( 45)  0.2737 ( 69)
          -0.1760 ( 83)  0.1578 ( 93) -0.1104 (103)  0.2075 (105) -0.1929 (110)
           0.1308 (111) -0.3241 (117)  0.2405 (121) -0.2506 (125)  0.2829 (128)
 CRD 33=  -0.1175 (  1)  0.2275 (  5) -0.1122 (  7) -0.1046 (  9) -0.2632 ( 11)
          -0.2632 ( 15) -0.1019 ( 17) -0.2444 ( 18)  0.1596 ( 19)  0.1596 ( 20)
           0.1404 ( 21) -0.1203 ( 31) -0.1273 ( 35)  0.1047 ( 73) -0.1119 ( 80)
          -0.1188 ( 82)  0.1552 ( 87)  0.1233 ( 88) -0.2063 ( 90)  0.1412 ( 96)
           0.1473 (103) -0.1311 (111) -0.1650 (115) -0.1380 (121) -0.1484 (124)
           0.2190 (125)  0.1803 (126)  0.1009 (137)
 CRD 34=   0.2422 (  1)  0.1343 (  3) -0.1702 (  4) -0.1759 (  6)  0.1115 (  9)
          -0.1309 ( 10) -0.1505 ( 18) -0.1048 ( 23) -0.1550 ( 28)  0.1270 ( 30)
          -0.1515 ( 34)  0.1105 ( 39)  0.1100 ( 41)  0.2084 ( 68) -0.1363 ( 70)
          -0.1105 ( 83)  0.1058 ( 99) -0.1371 (102)  0.1544 (104) -0.1113 (112)
           0.1005 (114) -0.1701 (116)  0.1099 (117) -0.1831 (118) -0.1511 (119)
           0.1214 (120) -0.1937 (121)  0.1083 (123)  0.1404 (124) -0.1068 (125)
           0.1371 (128)  0.1862 (129) -0.1511 (132)
 CRD 35=   0.1051 (  1) -0.1265 (  2)  0.1045 (  3)  0.1107 ( 10)  0.1098 ( 12)
          -0.3523 ( 13) -0.3523 ( 14)  0.1061 ( 16) -0.1283 ( 17) -0.1724 ( 28)
          -0.1129 ( 30) -0.1214 ( 34) -0.1493 ( 39)  0.1210 ( 68) -0.1113 ( 87)
          -0.1165 ( 97) -0.1111 ( 98) -0.1489 (102)  0.1126 (112) -0.1005 (114)
           0.1055 (115) -0.1690 (116)  0.1165 (117) -0.1713 (118) -0.1578 (119)
          -0.1651 (129)  0.1716 (132)  0.1072 (134)
 CRD 36=  -0.1150 (  2)  0.1169 (  4) -0.1180 (  5) -0.1253 (  8) -0.2126 ( 11)
           0.1154 ( 13)  0.1154 ( 14) -0.2126 ( 15) -0.1009 ( 18)  0.1044 ( 31)
           0.1070 ( 32)  0.1015 ( 36)  0.1015 ( 40) -0.1179 ( 43)  0.1057 ( 71)
           0.1057 ( 72)  0.2208 ( 80) -0.1684 ( 82)  0.1304 ( 85) -0.1392 ( 86)
          -0.1251 ( 88)  0.1470 ( 89)  0.1208 ( 91) -0.2022 ( 92)  0.1491 ( 96)
           0.1409 (115) -0.1724 (119)  0.1311 (121) -0.1827 (124) -0.1070 (125)
          -0.1546 (126) -0.1108 (128)  0.1987 (129)  0.2167 (131)
 CRD 37=   0.1402 (  3) -0.1938 ( 10)  0.1303 ( 12) -0.1225 ( 16) -0.1490 ( 22)
          -0.1490 ( 27)  0.1577 ( 37)  0.1577 ( 38)  0.1847 ( 46)  0.1847 ( 50)
          -0.1207 ( 65) -0.1207 ( 67) -0.1067 ( 71) -0.1067 ( 72) -0.1674 ( 76)
          -0.1696 ( 78) -0.1999 ( 79) -0.1483 ( 84)  0.1130 ( 94)  0.1089 ( 95)
          -0.2058 ( 97) -0.1837 ( 98) -0.1790 (107) -0.2236 (112)  0.2400 (133)
          -0.2457 (134)  0.2441 (135)  0.1866 (136) -0.1548 (138) -0.1488 (139)
 CRD 38=  -0.1405 ( 11)  0.1050 ( 12) -0.1405 ( 15)  0.1396 ( 17)  0.1157 ( 18)
          -0.1010 ( 44) -0.1010 ( 48)  0.1250 ( 56)  0.1250 ( 57)  0.1250 ( 63)
           0.1250 ( 64) -0.1327 ( 65) -0.1327 ( 67)  0.2297 ( 77) -0.1671 ( 86)
           0.1379 ( 90) -0.1955 ( 91)  0.1388 ( 94)  0.1364 ( 95) -0.1165 ( 96)
          -0.1047 ( 97) -0.1155 (102) -0.1354 (104) -0.1575 (107) -0.1027 (113)
          -0.1462 (114)  0.2179 (119)  0.1980 (124)  0.1300 (131) -0.3158 (136)
          -0.2553 (137) -0.1295 (138) -0.1401 (139)
 CRD 39=  -0.2889 ( 76) -0.2901 ( 78)  0.2166 ( 97) -0.2776 (100) -0.4904 (101)
           0.3063 (106) -0.3063 (108)  0.2010 (109)  0.2190 (134) -0.2940 (138)
          -0.2968 (139)

 THE DETERMINANT OF THE G MATRIX IS 10**(    -9)


                     --------------------
                     INTERNAL COORDINATES
                     --------------------

                 - - ATOMS - -         COORDINATE      COORDINATE
 NO.   TYPE    I  J  K  L  M  N        (BOHR,RAD)       (ANG,DEG)
 ----------------------------------------------------------------
   1 STRETCH   1  2                     2.9353938       1.5533436
   2 STRETCH   1  7                     2.0622512       1.0912964
   3 STRETCH   1  5                     2.8625187       1.5147798
   4 STRETCH   1  6                     2.0619737       1.0911496
   5 STRETCH   2  9                     2.0542350       1.0870544
   6 STRETCH   2  3                     2.9275770       1.5492072
   7 STRETCH   2  8                     2.0526377       1.0862092
   8 STRETCH   3 10                     2.0567404       1.0883802
   9 STRETCH   3 11                     2.0552965       1.0876161
  10 STRETCH   3  4                     2.9347295       1.5529921
  11 STRETCH   4 14                     3.4204040       1.8100000
  12 STRETCH   4 12                     2.0511597       1.0854270
  13 STRETCH   4  5                     2.6004686       1.3761088
  14 STRETCH   4  5                     2.6004686       1.3761088
  15 STRETCH   4 14                     3.4204040       1.8100000
  16 STRETCH   5 13                     2.0458005       1.0825911
  17 STRETCH   5 15                     9.0019601       4.7636325
  18 STRETCH   5 14                     4.8938860       2.5897331
  19 STRETCH  14 15                     4.1573970       2.1999999
  20 STRETCH  14 15                     4.1573970       2.1999999
  21 BEND      1  2  8                  1.9582940     112.2019791
  22 BEND      1  5  4                  1.9732575     113.0593279
  23 BEND      1  2  9                  1.9216965     110.1050980
  24 BEND      1  2  3                  1.8305775     104.8843629
  25 BEND      1  5 14                  1.9158597     109.7706734
  26 BEND      1  5 15                  1.8858421     108.0507936
  27 BEND      1  5  4                  1.9732575     113.0593279
  28 BEND      1  5 13                  2.1312790     122.1132944
  29 BEND      2  3 11                  1.9628922     112.4654367
  30 BEND      2  3  4                  1.8064872     103.5040915
  31 BEND      2  3 10                  1.9344766     110.8373468
  32 BEND      2  1  7                  1.9449966     111.4400990
  33 BEND      2  1  6                  1.9564050     112.0937467
  34 BEND      2  1  5                  1.8093109     103.6658761
  35 BEND      3  2  9                  1.9185029     109.9221205
  36 BEND      3  4 14                  1.9058487     109.1970862
  37 BEND      3  4  5                  1.8463323     105.7870508
  38 BEND      3  4  5                  1.8463323     105.7870508
  39 BEND      3  4 12                  1.9934477     114.2161404
  40 BEND      3  4 14                  1.9058487     109.1970862
  41 BEND      3  2  8                  1.9531567     111.9076334
  42 BEND      4 14 15                  2.8202826     161.5902897
  43 BEND      4  3 11                  1.9676449     112.7377494
  44 BEND      4  5 15                  0.8232239      47.1672525
  45 BEND      4  3 10                  1.9025595     109.0086298
  46 BEND      4  5 13                  2.1687884     124.2624192
  47 BEND      4  5 14                  0.7272490      41.6682984
  48 BEND      4  5 15                  0.8232239      47.1672525
  49 BEND      4  5 14                  0.7272490      41.6682984
  50 BEND      4  5 13                  2.1687884     124.2624192
  51 BEND      4 14 15                  2.8202826     161.5902897
  52 BEND      4 14 15                  2.8202826     161.5902897
  53 BEND      4 14 15                  2.8202826     161.5902897
  54 BEND      4 14  5                  0.5299010      30.3610903
  55 BEND      4 14  5                  0.5299010      30.3610903
  56 BEND      5  4 14                  1.8844427     107.9706112
  57 BEND      5  4 14                  1.8844427     107.9706112
  58 BEND      5  1  7                  1.9155204     109.7512356
  59 BEND      5 14 15                  2.9320080     167.9916865
  60 BEND      5 15 14                  0.1133502       6.4944900
  61 BEND      5 15 14                  0.1133502       6.4944900
  62 BEND      5 14 15                  2.9320080     167.9916865
  63 BEND      5  4 14                  1.8844427     107.9706112
  64 BEND      5  4 14                  1.8844427     107.9706112
  65 BEND      5  4 12                  2.0376458     116.7485067
  66 BEND      5  1  6                  1.9739643     113.0998251
  67 BEND      5  4 12                  2.0376458     116.7485067
  68 BEND      6  1  7                  1.8650492     106.8594470
  69 BEND      8  2  9                  1.8817750     107.8177629
  70 BEND     10  3 11                  1.8888899     108.2254172
  71 BEND     12  4 14                  1.7912488     102.6309938
  72 BEND     12  4 14                  1.7912488     102.6309938
  73 BEND     13  5 14                  1.8745725     107.4050942
  74 BEND     13  5 15                  1.8284260     104.7610913
  75 BEND     14  5 15                  0.0962344       5.5138235
  76 TORSION   1  5 15 14               1.9034179     109.0578138
  77 TORSION   1  5  4  3               0.3930906      22.5224351
  78 TORSION   1  5 14 15              -1.2695266     -72.7385184
  79 TORSION   1  5 14  4               1.7948499     102.8373260
  80 TORSION   1  2  3  4               0.4648112      26.6317228
  81 TORSION   1  2  3 11               2.5935629     148.6002070
  82 TORSION   1  5  4 12               2.6324199     150.8265503
  83 TORSION   1  2  3 10              -1.5725478     -90.1003538
  84 TORSION   1  5  4 14              -1.6455201     -94.2813586
  85 TORSION   2  1  5 15              -0.9703751     -55.5983966
  86 TORSION   2  3  4  5              -0.5292884     -30.3259902
  87 TORSION   2  3  4 12              -2.7945885    -160.1181265
  88 TORSION   2  3  4 14               1.4948159      85.6466440
  89 TORSION   2  1  5 14              -0.8737165     -50.0602665
  90 TORSION   2  1  5 13              -3.0891092    -176.9929223
  91 TORSION   2  1  5  4              -0.0920140      -5.2720127
  92 TORSION   3  2  1  5              -0.2485149     -14.2388541
  93 TORSION   3  2  1  7               1.8105771     103.7384278
  94 TORSION   3  4  5 14               2.0386108     116.8037937
  95 TORSION   3  4  5 15               2.0285034     116.2246857
  96 TORSION   3  4  5 13              -2.8966151    -165.9638204
  97 TORSION   3  4 14 15               1.0911441      62.5179505
  98 TORSION   3  4 14  5              -1.9996077    -114.5690833
  99 TORSION   3  2  1  6              -2.3831826    -136.5463057
 100 TORSION   4  5 15 14               0.0699885       4.0100459
 101 TORSION   4 14 15  5              -3.0178167    -172.9081592
 102 TORSION   4  5  1  6               2.0309455     116.3646027
 103 TORSION   4  3  2  8               2.5922182     148.5231602
 104 TORSION   4  5  1  7              -2.1714567    -124.4153030
 105 TORSION   4  3  2  9              -1.6005481     -91.7046499
 106 TORSION   4 14  5 15               3.0643766     175.5758445
 107 TORSION   4 14  5 13              -2.1355716    -122.3592381
 108 TORSION   4  5 14 15              -3.0643766    -175.5758445
 109 TORSION   5  4 14 15               3.0907518     177.0870338
 110 TORSION   5  1  2  9               1.8146818     103.9736080
 111 TORSION   5  1  2  8              -2.3725643    -135.9379235
 112 TORSION   5 14  4 12               2.1622628     123.8885340
 113 TORSION   5  4  3 11              -2.6548586    -152.1121904
 114 TORSION   5  4  3 10               1.5304157      87.6863632
 115 TORSION   6  1  2  8               1.7759532     101.7546250
 116 TORSION   6  1  5 15               1.1525844      66.0382189
 117 TORSION   6  1  2  9              -0.3199859     -18.3338436
 118 TORSION   6  1  5 14               1.2492430      71.5763490
 119 TORSION   6  1  5 13              -0.9661498     -55.3563068
 120 TORSION   7  1  5 15              -3.0498178    -174.7416868
 121 TORSION   7  1  2  8              -0.3134723     -17.9606416
 122 TORSION   7  1  2  9              -2.4094115    -138.0491101
 123 TORSION   7  1  5 14              -2.9531592    -169.2035567
 124 TORSION   7  1  5 13               1.1146334      63.8637875
 125 TORSION   8  2  3 10               0.5548591      31.7910836
 126 TORSION   8  2  3 11              -1.5622155     -89.5083556
 127 TORSION   9  2  3 10               2.6452781     151.5632735
 128 TORSION   9  2  3 11               0.5282036      30.2638343
 129 TORSION  10  3  4 12              -0.7348844     -42.1057731
 130 TORSION  10  3  4 14              -2.7286653    -156.3410026
 131 TORSION  11  3  4 12               1.3630266      78.0956733
 132 TORSION  11  3  4 14              -0.6307542     -36.1395562
 133 TORSION  12  4  5 15              -2.0153526    -115.4711991
 134 TORSION  12  4 14 15              -1.0301707     -59.0244322
 135 TORSION  12  4  5 14              -2.0052453    -114.8920911
 136 TORSION  12  4  5 13              -0.6572859     -37.6597052
 137 TORSION  13  5  4 14               1.3479594      77.2323859
 138 TORSION  13  5 15 14              -2.0827276    -119.3315005
 139 TORSION  13  5 14 15               1.0832372      62.0649174
 140 TORSION  14  4  5 15              -0.0101073      -0.5791080

     ------------------------------------------
     THE POINT GROUP IS C1 , NAXIS= 0, ORDER= 1
     ------------------------------------------

     DIMENSIONS OF THE SYMMETRY SUBSPACES ARE
 A   =   71

 ..... DONE SETTING UP THE RUN .....
 STEP CPU TIME =     0.05 TOTAL CPU TIME =          0.0 (      0.0 MIN)
 TOTAL WALL CLOCK TIME=          0.1 SECONDS, CPU UTILIZATION IS    83.33%


          -----------------------------
          STATIONARY POINT LOCATION RUN
          -----------------------------

 OBTAINING INITIAL HESSIAN, HESS=CALC    

     ---------------------------------
     HESSIAN MATRIX CONTROL PARAMETERS
     ---------------------------------
     METHOD=ANALYTIC   NVIB  =       2   VIBSIZ= 0.01000
     RDHESS=       F   PURIFY=       F   PRTIFC=       F
     VIBANL=       F   DECOMP=       F   PROJCT=       F
     SCLFAC= 1.00000   PRTSCN=       F   NPRT  =       0
     PULCOR=       F   NPUN  =       0   REDOVB=       T
     HSSTYP=GENERAL 
 Old integral subroutine is used

     ------------------------------
     CPHF RESPONSE SOLUTION OPTIONS
     ------------------------------
     POLAR  =       F     NWORD  =       0
     CPHF   =AO      

          ********************
          1 ELECTRON INTEGRALS
          ********************
 ...... END OF ONE-ELECTRON INTEGRALS ......
 STEP CPU TIME =     0.02 TOTAL CPU TIME =          0.1 (      0.0 MIN)
 TOTAL WALL CLOCK TIME=          0.1 SECONDS, CPU UTILIZATION IS    87.50%

          -------------
          GUESS OPTIONS
          -------------
          GUESS =HUCKEL            NORB  =       0          NORDER=       0
          MIX   =       F          PRTMO =       F          PUNMO =       F
          TOLZ  = 1.0E-08          TOLE  = 1.0E-05
          SYMDEN=       F          PURIFY=       F

 INITIAL GUESS ORBITALS GENERATED BY HUCKEL   ROUTINE.
 HUCKEL GUESS REQUIRES     66792 WORDS.

 SYMMETRIES FOR INITIAL GUESS ORBITALS FOLLOW.   BOTH SET(S).
    54 ORBITALS ARE OCCUPIED (   33 CORE ORBITALS).
    34=A       35=A       36=A       37=A       38=A       39=A       40=A   
    41=A       42=A       43=A       44=A       45=A       46=A       47=A   
    48=A       49=A       50=A       51=A       52=A       53=A       54=A   
    55=A       56=A       57=A       58=A       59=A       60=A       61=A   
    62=A       63=A       64=A   
 ...... END OF INITIAL ORBITAL SELECTION ......
 STEP CPU TIME =     0.02 TOTAL CPU TIME =          0.1 (      0.0 MIN)
 TOTAL WALL CLOCK TIME=          0.1 SECONDS, CPU UTILIZATION IS    90.00%

                    ----------------------
                    AO INTEGRAL TECHNOLOGY
                    ----------------------
     S,P,L SHELL ROTATED AXIS INTEGRALS, REPROGRAMMED BY
        KAZUYA ISHIMURA (IMS) AND JOSE SIERRA (SYNSTAR).
     S,P,D,L SHELL ROTATED AXIS INTEGRALS PROGRAMMED BY
        KAZUYA ISHIMURA (INSTITUTE FOR MOLECULAR SCIENCE).
     S,P,D,F,G SHELL TO TOTAL QUARTET ANGULAR MOMENTUM SUM 5,
        ERIC PROGRAM BY GRAHAM FLETCHER (ELORET AND NASA ADVANCED
        SUPERCOMPUTING DIVISION, AMES RESEARCH CENTER).
     S,P,D,F,G,L SHELL GENERAL RYS QUADRATURE PROGRAMMED BY
        MICHEL DUPUIS (PACIFIC NORTHWEST NATIONAL LABORATORY).

          --------------------
          2 ELECTRON INTEGRALS
          --------------------

 THE -PK- OPTION IS OFF, THE INTEGRALS ARE NOT IN SUPERMATRIX FORM.
 STORING   15000 INTEGRALS/RECORD ON DISK, USING 12 BYTES/INTEGRAL.
 TWO ELECTRON INTEGRAL EVALUATION REQUIRES   90802 WORDS OF MEMORY.
 SCHWARZ INEQUALITY OVERHEAD:      2339 INTEGRALS, T=        0.01
 II,JST,KST,LST =  1  1  1  1 NREC =         1 INTLOC =    1
 II,JST,KST,LST =  2  1  1  1 NREC =         1 INTLOC =    2
 II,JST,KST,LST =  3  1  1  1 NREC =         1 INTLOC =   34
 II,JST,KST,LST =  4  1  1  1 NREC =         1 INTLOC =  138
 II,JST,KST,LST =  5  1  1  1 NREC =         1 INTLOC = 1353
 II,JST,KST,LST =  6  1  1  1 NREC =         1 INTLOC = 1924
 II,JST,KST,LST =  7  1  1  1 NREC =         1 INTLOC = 6793
 II,JST,KST,LST =  8  1  1  1 NREC =         1 INTLOC = 8469
 II,JST,KST,LST =  9  1  1  1 NREC =         2 INTLOC = 5875
 II,JST,KST,LST = 10  1  1  1 NREC =         2 INTLOC = 9835
 II,JST,KST,LST = 11  1  1  1 NREC =         4 INTLOC = 5291
 II,JST,KST,LST = 12  1  1  1 NREC =         4 INTLOC =13894
 II,JST,KST,LST = 13  1  1  1 NREC =         5 INTLOC = 8547
 II,JST,KST,LST = 14  1  1  1 NREC =         6 INTLOC = 4327
 II,JST,KST,LST = 15  1  1  1 NREC =         7 INTLOC = 1318
 II,JST,KST,LST = 16  1  1  1 NREC =         7 INTLOC =14606
 II,JST,KST,LST = 17  1  1  1 NREC =         8 INTLOC =14283
 II,JST,KST,LST = 18  1  1  1 NREC =        10 INTLOC =  428
 II,JST,KST,LST = 19  1  1  1 NREC =        11 INTLOC = 3147
 II,JST,KST,LST = 20  1  1  1 NREC =        12 INTLOC = 2528
 II,JST,KST,LST = 21  1  1  1 NREC =        16 INTLOC =13129
 II,JST,KST,LST = 22  1  1  1 NREC =        23 INTLOC =12075
 II,JST,KST,LST = 23  1  1  1 NREC =        38 INTLOC = 2224
 II,JST,KST,LST = 24  1  1  1 NREC =        53 INTLOC = 1826
 II,JST,KST,LST = 25  1  1  1 NREC =        53 INTLOC = 9153
 II,JST,KST,LST = 26  1  1  1 NREC =        56 INTLOC =11596
 II,JST,KST,LST = 27  1  1  1 NREC =        63 INTLOC = 1403
 II,JST,KST,LST = 28  1  1  1 NREC =        75 INTLOC =11875
 SCHWARZ INEQUALITY TEST SKIPPED       36201 INTEGRAL BLOCKS.
 TOTAL NUMBER OF NONZERO TWO-ELECTRON INTEGRALS =             1509345
        101 INTEGRAL RECORDS WERE STORED ON DISK FILE  8.
  ...... END OF TWO-ELECTRON INTEGRALS .....
 STEP CPU TIME =     0.28 TOTAL CPU TIME =          0.4 (      0.0 MIN)
 TOTAL WALL CLOCK TIME=          0.4 SECONDS, CPU UTILIZATION IS    97.37%

          --------------------------
                 RHF SCF CALCULATION
          --------------------------

     NUCLEAR ENERGY =       867.3209711509
     MAXIT =   30     NPUNCH=    2
     EXTRAP=T  DAMP=F  SHIFT=F  RSTRCT=F  DIIS=F  DEM=F  SOSCF=T
     DENSITY MATRIX CONV=  1.00E-05
     SOSCF WILL OPTIMIZE     918 ORBITAL ROTATIONS, SOGTOL=   0.250
     MEMORY REQUIRED FOR RHF ITERS=     69953 WORDS.

 ITER EX DEM     TOTAL ENERGY        E CHANGE  DENSITY CHANGE     ORB. GRAD
   1  0  0    -5282.3394534844 -5282.3394534844  12.519217031   0.000000000
          ---------------START SECOND ORDER SCF---------------
   2  1  0    -5283.2763466878    -0.9368932034   0.868771903   0.154202662
   3  2  0    -5283.3233292859    -0.0469825982   0.422346256   0.120802924
   4  3  0    -5283.4603647211    -0.1370354352   0.063538243   0.014114262
   5  4  0    -5283.4629016116    -0.0025368905   0.018917921   0.008271460
   6  5  0    -5283.4637363495    -0.0008347379   0.004833060   0.001896479
   7  6  0    -5283.4637931985    -0.0000568490   0.003334010   0.000467165
   8  7  0    -5283.4638031665    -0.0000099680   0.000732801   0.000102972
   9  8  0    -5283.4638037223    -0.0000005558   0.000160785   0.000043169
  10  9  0    -5283.4638037770    -0.0000000547   0.000082995   0.000018372
  11 10  0    -5283.4638037829    -0.0000000059   0.000048393   0.000008619
  12 11  0    -5283.4638037841    -0.0000000013   0.000012102   0.000001984
  13 12  0    -5283.4638037843    -0.0000000001   0.000002897   0.000000612
  14 13  0    -5283.4638037843    -0.0000000000   0.000000496   0.000000147

          -----------------
          DENSITY CONVERGED
          -----------------
     TIME TO FORM FOCK OPERATORS=       0.3 SECONDS (       0.0 SEC/ITER)
     TIME TO SOLVE SCF EQUATIONS=       0.0 SECONDS (       0.0 SEC/ITER)

 FINAL RHF ENERGY IS    -5283.4638037843 AFTER  14 ITERATIONS

          ------------
          EIGENVECTORS
          ------------

                      1          2          3          4          5
                 -484.8970  -484.7343   -63.8061   -63.6482   -57.9371
                     A          A          A          A          A   
    1  C  1  S   -0.000000  -0.000000  -0.000008  -0.000001   0.000001
    2  C  1  S    0.000001   0.000000   0.000080   0.000006  -0.000007
    3  C  1  X    0.000000   0.000000   0.000026   0.000005  -0.000003
    4  C  1  Y   -0.000000   0.000000   0.000009   0.000002  -0.000001
    5  C  1  Z    0.000000   0.000000   0.000007   0.000001  -0.000001
    6  C  2  S   -0.000000   0.000000  -0.000008   0.000000   0.000000
    7  C  2  S    0.000001  -0.000000   0.000118  -0.000003  -0.000004
    8  C  2  X   -0.000000   0.000000  -0.000061  -0.000000   0.000004
    9  C  2  Y   -0.000000   0.000000  -0.000034   0.000004  -0.000000
   10  C  2  Z    0.000000  -0.000000   0.000024  -0.000003   0.000001
   11  C  3  S    0.000000  -0.000000   0.000025  -0.000001  -0.000002
   12  C  3  S    0.000001   0.000000   0.000157   0.000015  -0.000013
   13  C  3  X   -0.000001   0.000000  -0.000105   0.000019  -0.000003
   14  C  3  Y   -0.000000  -0.000000  -0.000030  -0.000009   0.000002
   15  C  3  Z   -0.000001   0.000000  -0.000227   0.000027   0.000004
   16  C  4  S    0.000003   0.000000   0.000430   0.000075  -0.000057
   17  C  4  S   -0.000019  -0.000004  -0.003373  -0.000632   0.000486
   18  C  4  X   -0.000008  -0.000001  -0.001347  -0.000233   0.000184
   19  C  4  Y    0.000010   0.000001   0.001704   0.000157  -0.000186
   20  C  4  Z   -0.000012  -0.000003  -0.002181  -0.000435   0.000317
   21  C  5  S    0.000001   0.000000   0.000088   0.000006  -0.000008
   22  C  5  S   -0.000001   0.000000  -0.000217   0.000034   0.000002
   23  C  5  X   -0.000001  -0.000000  -0.000119  -0.000003   0.000008
   24  C  5  Y    0.000001  -0.000000   0.000168  -0.000030   0.000001
   25  C  5  Z   -0.000001  -0.000000  -0.000245  -0.000037   0.000027
   26  H  6  S   -0.000000  -0.000000  -0.000054  -0.000003   0.000004
   27  H  7  S   -0.000000  -0.000000  -0.000027  -0.000002   0.000002
   28  H  8  S   -0.000000   0.000000  -0.000037   0.000000   0.000002
   29  H  9  S   -0.000001   0.000000  -0.000220   0.000004   0.000008
   30  H 10  S   -0.000001  -0.000000  -0.000145  -0.000002   0.000010
   31  H 11  S   -0.000002   0.000000  -0.000393   0.000011   0.000012
   32  H 12  S   -0.000001   0.000000  -0.000221   0.000047  -0.000006
   33  H 13  S   -0.000000   0.000000  -0.000025   0.000003   0.000000
   34  BR14  S    0.994693   0.000003   0.419550   0.003984  -0.000085
   35  BR14  S    0.014823  -0.000001  -1.059734  -0.010026   0.000216
   36  BR14  X   -0.000000  -0.000001  -0.000043  -0.000066  -0.425094
   37  BR14  Y   -0.000002   0.000001   0.000466   0.000120   0.689858
   38  BR14  Z   -0.000001  -0.000001   0.000181  -0.000081  -0.573685
   39  BR14  S   -0.073377  -0.000042   2.444174   0.020360  -0.000539
   40  BR14  X    0.000000   0.000002   0.000064   0.000248  -0.008032
   41  BR14  Y    0.000001  -0.000003   0.000036  -0.000438   0.013028
   42  BR14  Z    0.000001   0.000002   0.000161   0.000314  -0.010844
   43  BR14 XX    0.032034   0.000020  -1.128098  -0.009292   0.000254
   44  BR14 YY    0.032034   0.000019  -1.128111  -0.009337   0.000227
   45  BR14 ZZ    0.032034   0.000020  -1.128091  -0.009299   0.000264
   46  BR14 XY   -0.000001   0.000000   0.000002   0.000039   0.000011
   47  BR14 XZ    0.000001  -0.000000   0.000005  -0.000024   0.000003
   48  BR14 YZ   -0.000001   0.000000  -0.000004   0.000046   0.000007
   49  BR14  S    0.000104  -0.000014   0.020342  -0.002188  -0.000099
   50  BR14  X   -0.000002  -0.000009  -0.000418  -0.001480   0.000770
   51  BR14  Y    0.000000   0.000016   0.000068   0.002616  -0.001210
   52  BR14  Z   -0.000005  -0.000011  -0.000894  -0.001873   0.001063
   53  BR15  S   -0.000002   0.994692  -0.003839   0.419586   0.000021
   54  BR15  S   -0.000001   0.014825   0.009734  -1.059806  -0.000049
   55  BR15  X    0.000000  -0.000003   0.000048   0.000567  -0.000034
   56  BR15  Y   -0.000001   0.000005  -0.000086  -0.001012   0.000067
   57  BR15  Z    0.000001  -0.000003   0.000061   0.000707  -0.000040
   58  BR15  S   -0.000041  -0.073371  -0.025204   2.442723  -0.000202
   59  BR15  X   -0.000001   0.000001  -0.000202   0.000169  -0.000026
   60  BR15  Y    0.000002  -0.000003   0.000359  -0.000308   0.000050
   61  BR15  Z   -0.000002   0.000002  -0.000254   0.000207  -0.000030
   62  BR15 XX    0.000019   0.032032   0.011736  -1.127407   0.000104
   63  BR15 YY    0.000019   0.032032   0.011696  -1.127416   0.000098
   64  BR15 ZZ    0.000019   0.032032   0.011726  -1.127411   0.000103
   65  BR15 XY    0.000000  -0.000000   0.000037   0.000010   0.000005
   66  BR15 XZ   -0.000000   0.000000  -0.000026  -0.000008  -0.000003
   67  BR15 YZ    0.000000  -0.000000   0.000046   0.000013   0.000006
   68  BR15  S   -0.000014   0.000094  -0.002553   0.018650  -0.000322
   69  BR15  X    0.000007  -0.000004   0.001200  -0.000664   0.000159
   70  BR15  Y   -0.000013   0.000008  -0.002142   0.001220  -0.000304
   71  BR15  Z    0.000009  -0.000005   0.001502  -0.000812   0.000187

                      6          7          8          9         10
                  -57.9339   -57.9337   -57.7790   -57.7767   -57.7766
                     A          A          A          A          A   
    1  C  1  S    0.000000  -0.000000   0.000000  -0.000000   0.000000
    2  C  1  S   -0.000004   0.000003  -0.000001   0.000000  -0.000000
    3  C  1  X   -0.000002  -0.000002  -0.000001   0.000000   0.000000
    4  C  1  Y   -0.000002   0.000002  -0.000000   0.000000  -0.000000
    5  C  1  Z   -0.000003  -0.000004  -0.000000   0.000000   0.000000
    6  C  2  S   -0.000000  -0.000000  -0.000000   0.000000   0.000000
    7  C  2  S    0.000001   0.000010   0.000000  -0.000000  -0.000000
    8  C  2  X    0.000003  -0.000010  -0.000000  -0.000000   0.000001
    9  C  2  Y   -0.000002  -0.000003  -0.000001   0.000000   0.000000
   10  C  2  Z    0.000001   0.000002   0.000000  -0.000000  -0.000000
   11  C  3  S    0.000000   0.000001   0.000000  -0.000000  -0.000000
   12  C  3  S    0.000020   0.000019  -0.000001  -0.000001  -0.000001
   13  C  3  X   -0.000002  -0.000004  -0.000002  -0.000001  -0.000000
   14  C  3  Y   -0.000001   0.000019   0.000001  -0.000000  -0.000002
   15  C  3  Z   -0.000018  -0.000028  -0.000003   0.000001   0.000002
   16  C  4  S    0.000011   0.000001  -0.000008  -0.000002  -0.000000
   17  C  4  S   -0.000096  -0.000006   0.000066   0.000015   0.000000
   18  C  4  X   -0.000033   0.000112   0.000024   0.000006  -0.000010
   19  C  4  Y    0.000147   0.000023  -0.000016  -0.000015  -0.000002
   20  C  4  Z   -0.000003  -0.000039   0.000046   0.000005   0.000003
   21  C  5  S   -0.000006   0.000001  -0.000001   0.000000  -0.000000
   22  C  5  S    0.000006  -0.000003  -0.000004  -0.000000   0.000000
   23  C  5  X    0.000020  -0.000004   0.000000  -0.000002   0.000001
   24  C  5  Y   -0.000010  -0.000003   0.000003   0.000001   0.000000
   25  C  5  Z    0.000047  -0.000003   0.000004  -0.000004   0.000000
   26  H  6  S    0.000005  -0.000002   0.000000  -0.000000   0.000000
   27  H  7  S    0.000002  -0.000003   0.000000  -0.000000   0.000000
   28  H  8  S    0.000001  -0.000005  -0.000000  -0.000000   0.000000
   29  H  9  S    0.000002  -0.000023  -0.000001  -0.000000   0.000001
   30  H 10  S   -0.000007  -0.000015   0.000000   0.000001   0.000001
   31  H 11  S   -0.000036  -0.000021  -0.000002   0.000001   0.000000
   32  H 12  S   -0.000007   0.000013  -0.000005  -0.000001   0.000000
   33  H 13  S    0.000001   0.000007  -0.000000  -0.000000  -0.000001
   34  BR14  S   -0.000209   0.000004  -0.000016  -0.000000   0.000000
   35  BR14  S    0.000532  -0.000010   0.000038   0.000000  -0.000000
   36  BR14  X    0.149527   0.884740   0.000052   0.000010   0.000032
   37  BR14  Y    0.680453   0.216499  -0.000092   0.000018   0.000008
   38  BR14  Z    0.707441  -0.395242   0.000065   0.000031  -0.000015
   39  BR14  S   -0.001148   0.000022   0.000163   0.000000  -0.000000
   40  BR14  X    0.002802   0.016552  -0.000025  -0.000005  -0.000015
   41  BR14  Y    0.012731   0.004051   0.000044  -0.000008  -0.000004
   42  BR14  Z    0.013246  -0.007394  -0.000031  -0.000015   0.000007
   43  BR14 XX    0.000535  -0.000010  -0.000085   0.000000   0.000001
   44  BR14 YY    0.000507  -0.000019  -0.000079  -0.000002  -0.000001
   45  BR14 ZZ    0.000520  -0.000002  -0.000084   0.000001  -0.000001
   46  BR14 XY   -0.000004  -0.000021  -0.000005   0.000000  -0.000001
   47  BR14 XZ   -0.000000  -0.000012   0.000003   0.000001   0.000001
   48  BR14 YZ   -0.000027   0.000007  -0.000005  -0.000001   0.000001
   49  BR14  S    0.000054  -0.000000   0.000259   0.000001  -0.000000
   50  BR14  X   -0.000220  -0.001171   0.000161   0.000025   0.000077
   51  BR14  Y   -0.000882  -0.000288  -0.000287   0.000041   0.000019
   52  BR14  Z   -0.000974   0.000524   0.000202   0.000078  -0.000035
   53  BR15  S    0.000001  -0.000000   0.000635   0.000008  -0.000001
   54  BR15  S   -0.000003   0.000000  -0.001617  -0.000021   0.000003
   55  BR15  X   -0.000007  -0.000022  -0.414796   0.182953   0.883336
   56  BR15  Y   -0.000011  -0.000005   0.732952   0.635086   0.212669
   57  BR15  Z   -0.000022   0.000010  -0.525807   0.740957  -0.400391
   58  BR15  S   -0.000013   0.000000   0.003508   0.000042  -0.000006
   59  BR15  X   -0.000005  -0.000016  -0.007820   0.003430   0.016561
   60  BR15  Y   -0.000008  -0.000004   0.013818   0.011908   0.003987
   61  BR15  Z   -0.000016   0.000007  -0.009912   0.013891  -0.007507
   62  BR15 XX    0.000006  -0.000001  -0.001612  -0.000029  -0.000046
   63  BR15 YY    0.000008   0.000001  -0.001565   0.000044   0.000024
   64  BR15 ZZ    0.000005   0.000001  -0.001599  -0.000071   0.000031
   65  BR15 XY    0.000000   0.000001  -0.000045  -0.000010   0.000044
   66  BR15 XZ   -0.000001  -0.000001   0.000032  -0.000031  -0.000023
   67  BR15 YZ    0.000001  -0.000001  -0.000057   0.000017  -0.000032
   68  BR15  S   -0.000021   0.000000  -0.000116  -0.000004   0.000000
   69  BR15  X    0.000027   0.000077   0.000618  -0.000238  -0.001158
   70  BR15  Y    0.000035   0.000019  -0.001097  -0.000837  -0.000279
   71  BR15  Z    0.000080  -0.000035   0.000780  -0.000969   0.000525

                     11         12         13         14         15
                  -11.0710   -11.0621   -11.0616   -11.0553   -11.0378
                     A          A          A          A          A   
    1  C  1  S   -0.003581  -0.079387   0.988390   0.026526   0.005475
    2  C  1  S   -0.000033  -0.002740   0.037477  -0.004564  -0.005477
    3  C  1  X   -0.000045  -0.000084   0.000230   0.002001  -0.003849
    4  C  1  Y    0.000084  -0.000103   0.000087   0.003581   0.000642
    5  C  1  Z   -0.000041   0.000143  -0.000225   0.000684   0.001604
    6  C  2  S   -0.002650  -0.020708  -0.027272   0.991378   0.002257
    7  C  2  S    0.000069  -0.005884  -0.007013   0.036886   0.000185
    8  C  2  X   -0.000169  -0.002146  -0.002012  -0.000143  -0.000162
    9  C  2  Y   -0.000035   0.002262  -0.003455  -0.000221   0.000027
   10  C  2  Z   -0.000193   0.002889  -0.000558   0.000217   0.000038
   11  C  3  S   -0.017217   0.988419   0.078742   0.023764   0.002310
   12  C  3  S   -0.006250   0.036985   0.003175  -0.004715   0.000138
   13  C  3  X   -0.003846  -0.000072  -0.000156   0.002461   0.000069
   14  C  3  Y   -0.001552   0.000145  -0.000065  -0.001853  -0.000400
   15  C  3  Z   -0.000641  -0.000166   0.000106  -0.002815  -0.000046
   16  C  4  S    0.991494   0.017807   0.005038   0.003269  -0.007210
   17  C  4  S    0.038843  -0.004803  -0.000036   0.000100  -0.007392
   18  C  4  X    0.000086   0.003747   0.000238   0.000178   0.000636
   19  C  4  Y    0.001138   0.001643   0.000201   0.000014  -0.004342
   20  C  4  Z    0.000980   0.000844   0.000058  -0.000194  -0.001449
   21  C  5  S    0.007928  -0.001641  -0.004570  -0.002324   0.992205
   22  C  5  S   -0.007340   0.000363  -0.006134  -0.000112   0.035522
   23  C  5  X   -0.000910  -0.000134   0.003931   0.000149   0.000162
   24  C  5  Y    0.004429   0.000166  -0.000573   0.000136  -0.001831
   25  C  5  Z    0.001660   0.000231  -0.001740  -0.000026   0.000282
   26  H  6  S    0.000040   0.000468  -0.006946  -0.000056  -0.000100
   27  H  7  S   -0.000025   0.000580  -0.006983  -0.000090  -0.000159
   28  H  8  S   -0.000108   0.000253   0.000327  -0.006984  -0.000087
   29  H  9  S    0.000067   0.000208   0.000287  -0.007033  -0.000029
   30  H 10  S    0.000163  -0.006989  -0.000557  -0.000096  -0.000062
   31  H 11  S    0.000261  -0.006916  -0.000646  -0.000042  -0.000174
   32  H 12  S   -0.007062   0.000006  -0.000079  -0.000155   0.000070
   33  H 13  S    0.000108  -0.000097   0.000118  -0.000087  -0.006769
   34  BR14  S    0.000034   0.000004   0.000000  -0.000000   0.000010
   35  BR14  S   -0.000135  -0.000008   0.000000   0.000001  -0.000021
   36  BR14  X    0.000068   0.000014   0.000001   0.000001   0.000011
   37  BR14  Y   -0.000083  -0.000001   0.000001  -0.000001  -0.000032
   38  BR14  Z    0.000104   0.000007   0.000000  -0.000000  -0.000002
   39  BR14  S   -0.000675  -0.000057  -0.000005  -0.000002  -0.000099
   40  BR14  X   -0.000227  -0.000050  -0.000004  -0.000004  -0.000038
   41  BR14  Y    0.000277   0.000003  -0.000002   0.000003   0.000114
   42  BR14  Z   -0.000346  -0.000024  -0.000001   0.000001   0.000004
   43  BR14 XX    0.000275   0.000042   0.000002   0.000002   0.000081
   44  BR14 YY    0.000265   0.000041   0.000002   0.000001   0.000075
   45  BR14 ZZ    0.000239   0.000044   0.000002   0.000001   0.000082
   46  BR14 XY    0.000034  -0.000001  -0.000001  -0.000000   0.000002
   47  BR14 XZ   -0.000045   0.000002   0.000000   0.000000   0.000000
   48  BR14 YZ    0.000053  -0.000000   0.000000  -0.000000  -0.000000
   49  BR14  S   -0.004616  -0.000135   0.000001   0.000019  -0.000345
   50  BR14  X    0.002501   0.000206   0.000016   0.000006   0.000182
   51  BR14  Y   -0.002993  -0.000018   0.000017  -0.000011  -0.000641
   52  BR14  Z    0.003873   0.000069   0.000009  -0.000006  -0.000126
   53  BR15  S    0.000005  -0.000000  -0.000000   0.000000   0.000001
   54  BR15  S   -0.000015  -0.000000   0.000000  -0.000000  -0.000002
   55  BR15  X    0.000007  -0.000001  -0.000000  -0.000000   0.000000
   56  BR15  Y   -0.000018  -0.000000  -0.000000  -0.000000   0.000001
   57  BR15  Z    0.000006  -0.000000  -0.000000   0.000000   0.000001
   58  BR15  S   -0.000098   0.000000   0.000000  -0.000001  -0.000014
   59  BR15  X   -0.000024   0.000003   0.000000   0.000000  -0.000001
   60  BR15  Y    0.000059   0.000001   0.000000   0.000000  -0.000002
   61  BR15  Z   -0.000021   0.000001   0.000000  -0.000000  -0.000005
   62  BR15 XX    0.000048  -0.000000  -0.000000   0.000000   0.000006
   63  BR15 YY    0.000044  -0.000001  -0.000000   0.000000   0.000007
   64  BR15 ZZ    0.000048  -0.000000  -0.000000   0.000000   0.000006
   65  BR15 XY    0.000003  -0.000000   0.000000   0.000000   0.000000
   66  BR15 XZ   -0.000002   0.000000   0.000000  -0.000000  -0.000000
   67  BR15 YZ    0.000004   0.000000   0.000000   0.000000   0.000000
   68  BR15  S   -0.000461  -0.000002   0.000000  -0.000003  -0.000049
   69  BR15  X    0.000209  -0.000015  -0.000002  -0.000000   0.000020
   70  BR15  Y   -0.000489  -0.000010  -0.000001  -0.000003  -0.000014
   71  BR15  Z    0.000200  -0.000002  -0.000001   0.000003   0.000050

                     16         17         18         19         20
                   -9.2924    -9.1467    -6.9921    -6.9720    -6.9708
                     A          A          A          A          A   
    1  C  1  S   -0.000007  -0.000001  -0.000012  -0.000004  -0.000002
    2  C  1  S    0.000095   0.000005   0.000169   0.000116  -0.000091
    3  C  1  X    0.000023   0.000005   0.000072   0.000040   0.000063
    4  C  1  Y    0.000017   0.000002   0.000024   0.000065  -0.000076
    5  C  1  Z    0.000006   0.000000   0.000017   0.000053   0.000115
    6  C  2  S   -0.000004   0.000000   0.000006   0.000009  -0.000005
    7  C  2  S    0.000140  -0.000004   0.000104  -0.000023  -0.000238
    8  C  2  X   -0.000093   0.000001  -0.000122  -0.000091   0.000283
    9  C  2  Y   -0.000039   0.000005   0.000002   0.000061   0.000052
   10  C  2  Z    0.000022  -0.000004  -0.000044  -0.000032  -0.000032
   11  C  3  S    0.000083  -0.000003   0.000104  -0.000049  -0.000093
   12  C  3  S    0.000132   0.000019   0.000192  -0.000375  -0.000317
   13  C  3  X   -0.000196   0.000025  -0.000080   0.000173   0.000237
   14  C  3  Y    0.000020  -0.000011   0.000091  -0.000060  -0.000478
   15  C  3  Z   -0.000364   0.000033  -0.000320   0.000511   0.000830
   16  C  4  S    0.000571   0.000110   0.001385  -0.000238  -0.000018
   17  C  4  S   -0.004322  -0.000717  -0.013168   0.002339   0.000158
   18  C  4  X   -0.001597  -0.000260  -0.004641   0.000707  -0.002939
   19  C  4  Y    0.002063   0.000163   0.004744  -0.003704  -0.000632
   20  C  4  Z   -0.002597  -0.000491  -0.007978  -0.000176   0.001012
   21  C  5  S    0.000191   0.000010   0.000336   0.000245  -0.000033
   22  C  5  S   -0.000348   0.000038  -0.000362  -0.000376   0.000109
   23  C  5  X   -0.000207   0.000000  -0.000420  -0.000587   0.000030
   24  C  5  Y    0.000286  -0.000036   0.000308   0.000397   0.000029
   25  C  5  Z   -0.000376  -0.000027  -0.000986  -0.001254   0.000108
   26  H  6  S   -0.000071  -0.000005  -0.000094  -0.000123   0.000057
   27  H  7  S   -0.000036   0.000000  -0.000072  -0.000061   0.000076
   28  H  8  S   -0.000048   0.000001  -0.000061  -0.000025   0.000121
   29  H  9  S   -0.000291   0.000007  -0.000228  -0.000063   0.000647
   30  H 10  S   -0.000174  -0.000002  -0.000269   0.000152   0.000359
   31  H 11  S   -0.000524   0.000016  -0.000299   0.000985   0.000623
   32  H 12  S   -0.000426   0.000060  -0.000146   0.000388  -0.000572
   33  H 13  S   -0.000041   0.000002  -0.000018  -0.000056  -0.000183
   34  BR14  S    0.170414   0.000436   0.000018   0.000644  -0.000006
   35  BR14  S   -0.524594  -0.001345  -0.000033  -0.001995   0.000020
   36  BR14  X    0.000115  -0.000042   0.179829  -0.058114  -0.372600
   37  BR14  Y    0.001125   0.000077  -0.283255  -0.292809  -0.091606
   38  BR14  Z    0.000927  -0.000051   0.247716  -0.292490   0.165740
   39  BR14  S    2.305883   0.004910   0.000640   0.008427  -0.000090
   40  BR14  X   -0.000273   0.000162  -0.458579   0.148286   0.950831
   41  BR14  Y   -0.002841  -0.000294   0.722343   0.747203   0.233767
   42  BR14  Z   -0.002303   0.000201  -0.631688   0.746365  -0.422950
   43  BR14 XX   -0.552071  -0.001013  -0.000002  -0.001155  -0.000141
   44  BR14 YY   -0.550770  -0.001033  -0.001500  -0.002452  -0.000392
   45  BR14 ZZ   -0.551268  -0.001016   0.001011  -0.002226   0.000602
   46  BR14 XY   -0.001396   0.000017   0.000385  -0.000155  -0.000977
   47  BR14 XZ    0.001262  -0.000010   0.000582  -0.000265  -0.000721
   48  BR14 YZ   -0.001809   0.000021  -0.000038  -0.001248   0.000233
   49  BR14  S    0.032720  -0.003386   0.002334  -0.001762   0.000011
   50  BR14  X   -0.000557  -0.001963  -0.025946   0.006715   0.040288
   51  BR14  Y   -0.000128   0.003487   0.040116   0.031490   0.009930
   52  BR14  Z   -0.001308  -0.002476  -0.036165   0.032455  -0.017923
   53  BR15  S   -0.000298   0.170449  -0.000235  -0.000022   0.000000
   54  BR15  S    0.000915  -0.524701   0.000764   0.000072  -0.000001
   55  BR15  X    0.000033   0.001831   0.001208   0.000351   0.001032
   56  BR15  Y   -0.000059  -0.003278  -0.002378   0.000475   0.000257
   57  BR15  Z    0.000042   0.002274   0.001384   0.001049  -0.000461
   58  BR15  S   -0.004980   2.305893  -0.001162  -0.000113   0.000000
   59  BR15  X   -0.000128  -0.004586  -0.002968  -0.000868  -0.002555
   60  BR15  Y    0.000226   0.008211   0.005843  -0.001179  -0.000637
   61  BR15  Z   -0.000162  -0.005698  -0.003401  -0.002597   0.001143
   62  BR15 XX    0.001348  -0.551840   0.000017   0.000003   0.000005
   63  BR15 YY    0.001325  -0.550726   0.000040  -0.000002  -0.000002
   64  BR15 ZZ    0.001342  -0.551526   0.000021   0.000008  -0.000003
   65  BR15 XY    0.000021  -0.001053  -0.000020  -0.000001  -0.000005
   66  BR15 XZ   -0.000015   0.000752   0.000013   0.000005   0.000002
   67  BR15 YZ    0.000026  -0.001322  -0.000024  -0.000005   0.000003
   68  BR15  S   -0.003284   0.031060   0.009373   0.000888  -0.000008
[...]
    7            -0.000000   0.000000  -0.000000  -0.000000  -0.000000
    8            -0.000000  -0.000000  -0.000000  -0.000000  -0.000000
    9            -0.000000   0.000000  -0.000000  -0.000000  -0.000000
   10            -0.000000  -0.000000  -0.000000  -0.000000  -0.000000
   11            -0.000000  -0.000000  -0.000000  -0.000000  -0.000000
   12            -0.000002   0.000000  -0.000002  -0.000001  -0.000001
   13            -0.000000   0.000000  -0.000000  -0.000000  -0.000000
   14             2.000065  -0.000034   1.998284   1.999753   1.999749
   15            -0.000026   2.000034   0.001826   0.000254   0.000254

                     21         22         23         24         25

                  2.000000   2.000000   2.000000   2.000000   2.000000

    1            -0.000000  -0.000000  -0.000000  -0.000000  -0.000000
    2             0.000000  -0.000000  -0.000000  -0.000000  -0.000000
    3            -0.000000   0.000000   0.000000  -0.000001  -0.000000
    4             0.000000   0.000000   0.000000   0.000100   0.000013
    5             0.000000   0.000000   0.000000  -0.000001   0.000003
    6             0.000000  -0.000000  -0.000000   0.000000   0.000000
    7            -0.000000   0.000000   0.000000   0.000000  -0.000000
    8            -0.000000  -0.000000  -0.000000  -0.000000  -0.000000
    9            -0.000000  -0.000000   0.000000  -0.000000   0.000000
   10            -0.000000  -0.000000  -0.000000   0.000000   0.000000
   11            -0.000000   0.000000   0.000000  -0.000000   0.000000
   12            -0.000000   0.000000   0.000000  -0.000000   0.000002
   13            -0.000000   0.000000   0.000000   0.000000   0.000000
   14             0.001832   0.000254   0.000254   1.998985   1.999946
   15             1.998167   1.999746   1.999746   0.000917   0.000037

                     26         27         28         29         30

                  2.000000   2.000000   2.000000   2.000000   2.000000

    1            -0.000000  -0.000000  -0.000000  -0.000000   0.000000
    2             0.000000  -0.000000   0.000000   0.000000  -0.000000
    3             0.000000   0.000000   0.000000  -0.000000  -0.000000
    4             0.000004   0.000000   0.000000  -0.000000  -0.000000
    5             0.000000   0.000000   0.000000  -0.000000  -0.000000
    6             0.000000   0.000000   0.000000   0.000000  -0.000000
    7             0.000000   0.000000   0.000000  -0.000000  -0.000000
    8             0.000000  -0.000000  -0.000000   0.000000  -0.000000
    9             0.000000  -0.000000   0.000000  -0.000000  -0.000000
   10             0.000000  -0.000000  -0.000000  -0.000000  -0.000000
   11             0.000000   0.000000   0.000000   0.000000  -0.000000
   12             0.000002   0.000001  -0.000000   0.000000  -0.000000
   13             0.000000   0.000000   0.000000   0.000000  -0.000000
   14             1.999957   1.999999   2.000000   0.000969   0.000039
   15             0.000037   0.000000   0.000000   1.999031   1.999961

                     31         32         33         34         35

                  2.000000   2.000000   2.000000   2.000000   2.000000

    1            -0.000000  -0.000000  -0.000000   0.312048   0.063028
    2            -0.000000   0.000000   0.000000   0.295436   0.116010
    3            -0.000000  -0.000000   0.000000   0.346367   0.022208
    4            -0.000000  -0.000000  -0.000000   0.428372   0.086760
    5            -0.000000   0.000000   0.000000   0.398092   0.048083
    6            -0.000000   0.000000  -0.000000   0.020969   0.007241
    7            -0.000000   0.000000   0.000000   0.027775   0.010268
    8            -0.000000   0.000000   0.000000   0.028483   0.023047
    9            -0.000000   0.000000   0.000000   0.017739   0.015802
   10            -0.000000   0.000000   0.000000   0.037644   0.001891
   11            -0.000000   0.000000  -0.000000   0.021029   0.000381
   12            -0.000000   0.000000   0.000000   0.027511   0.018588
   13            -0.000000   0.000000   0.000000   0.023778   0.004615
   14             0.000038   0.000000   0.000000   0.014237   0.926180
   15             1.999962   2.000000   2.000000   0.000516   0.655900

                     36         37         38         39         40

                  2.000000   2.000000   2.000000   2.000000   2.000000

    1             0.108908   0.527144   0.040110   0.256866   0.171238
    2             0.421354   0.096873   0.121122   0.327217   0.075994
    3             0.102304   0.545599   0.085588   0.205281   0.173762
    4             0.340267   0.153629   0.048588   0.129361   0.448274
    5             0.328209   0.197901   0.028058   0.144691   0.399239
    6             0.007564   0.103506   0.005401   0.090343   0.026311
    7             0.012606   0.093444   0.007345   0.078903   0.040859
    8             0.092782   0.000895   0.029978   0.093161   0.000045
    9             0.069611   0.000127   0.053034   0.145656   0.000396
   10             0.009717   0.103899   0.031631   0.050080   0.029941
   11             0.007524   0.105902   0.021224   0.078322   0.038832
   12             0.047098   0.017613   0.011450   0.003886   0.282251
   13             0.046315   0.029594   0.000593   0.019797   0.245224
   14             0.164843   0.007150   0.689624   0.177589   0.036180
   15             0.240897   0.016724   0.826253   0.198844   0.031451

                     41         42         43         44         45

                  2.000000   2.000000   2.000000   2.000000   2.000000

    1             0.187998   0.413117   0.429706   0.173209   0.198071
    2             0.189971   0.374405   0.020173   0.245548   0.358441
    3             0.251202   0.279910   0.496884   0.246275   0.291784
    4             0.346866   0.089001   0.074003   0.378964   0.347036
    5             0.357106   0.092680   0.055209   0.386052   0.219525
    6             0.061943   0.119255   0.148060   0.104323   0.038638
    7             0.019432   0.175063   0.265227   0.000698   0.024708
    8             0.027963   0.124188   0.000658   0.013915   0.007983
    9             0.055489   0.112219   0.006145   0.053208   0.286090
   10             0.009624   0.116503   0.207985   0.101208   0.003959
   11             0.110998   0.064719   0.238782   0.018206   0.044851
   12             0.174692   0.006128   0.022875   0.112421   0.006524
   13             0.195938   0.005819   0.014750   0.140170   0.002684
   14             0.006982   0.016032   0.012529   0.019252   0.095183
   15             0.003796   0.010961   0.007014   0.006548   0.074523

                     46         47         48         49         50

                  2.000000   2.000000   2.000000   2.000000   2.000000

    1             0.522309   0.584909   0.021457   0.061409   0.004471
    2             0.309081   0.397291   0.373964   0.349944   0.002822
    3             0.381354   0.129891   0.295104   0.172530   0.001898
    4             0.142377   0.078807   0.259681   0.057178   0.011894
    5             0.128791   0.406520   0.116746   0.005007   0.005028
    6             0.126451   0.000320   0.011249   0.035805   0.000279
    7             0.073320   0.003343   0.008135   0.048809   0.000039
    8             0.004156   0.066189   0.153030   0.265050   0.000982
    9             0.000469   0.000303   0.001449   0.099929   0.000610
   10             0.021099  -0.000013   0.003769   0.135170   0.001278
   11             0.133338   0.001534   0.000268   0.028153   0.000125
   12             0.051326   0.077969   0.051495   0.002573   0.008976
   13             0.028099   0.170955   0.007380   0.000048   0.000942
   14             0.045577   0.049023   0.367201   0.393228   1.160726
   15             0.032253   0.032959   0.329072   0.345166   0.799931

                     51         52         53         54

                  2.000000   2.000000   2.000000   2.000000

    1             0.002078   0.000223   0.000198   0.022250
    2             0.023194   0.000274   0.000141   0.011037
    3             0.039708   0.002497   0.001870   0.030852
    4             0.023268   0.003355   0.003271   0.619850
    5             0.002086   0.001468   0.000843   0.741659
    6             0.000922   0.000033   0.000141   0.031953
    7             0.001040   0.000021   0.000077   0.046376
    8             0.018369   0.000199   0.000010   0.002329
    9             0.003556   0.000053   0.000007   0.008386
   10             0.020469   0.002034   0.000787   0.056202
   11             0.001850   0.000126   0.000101   0.018852
   12             0.002538   0.000594   0.001699   0.001542
   13             0.000421   0.000045   0.000070   0.000151
   14             1.086383   0.792944   0.796261   0.110908
   15             0.774116   1.196134   1.194525   0.297651

               ----- POPULATIONS IN EACH AO -----
                             MULLIKEN      LOWDIN
              1  C  1  S      1.99210     1.98510
              2  C  1  S      1.18380     1.03258
              3  C  1  X      0.94545     0.98321
              4  C  1  Y      0.96991     1.00176
              5  C  1  Z      1.01146     1.03457
              6  C  2  S      1.99217     1.98506
              7  C  2  S      1.18614     1.03951
              8  C  2  X      0.98504     1.01220
              9  C  2  Y      0.96179     0.99726
             10  C  2  Z      0.98708     1.01800
             11  C  3  S      1.99213     1.98516
             12  C  3  S      1.18528     1.03474
             13  C  3  X      0.94201     0.98228
             14  C  3  Y      1.00483     1.02862
             15  C  3  Z      0.98057     1.00970
             16  C  4  S      1.99292     1.98687
             17  C  4  S      1.15994     1.04399
             18  C  4  X      0.95586     0.98465
             19  C  4  Y      0.99267     1.02798
             20  C  4  Z      0.97037     0.99204
             21  C  5  S      1.99298     1.98688
             22  C  5  S      1.15410     1.04403
             23  C  5  X      0.95221     0.98263
             24  C  5  Y      0.96414     1.00157
             25  C  5  Z      1.00049     1.02208
             26  H  6  S      0.93974     0.97187
             27  H  7  S      0.93650     0.96946
             28  H  8  S      0.95243     0.98040
             29  H  9  S      0.92934     0.96234
             30  H 10  S      0.94389     0.97482
             31  H 11  S      0.93416     0.96729
             32  H 12  S      0.92879     0.96189
             33  H 13  S      0.93643     0.96798
             34  BR14  S      2.00078     1.99918
             35  BR14  S      1.99680     1.99277
             36  BR14  X      1.99995     1.99969
             37  BR14  Y      1.99987     1.99920
             38  BR14  Z      1.99992     1.99951
             39  BR14  S      1.96979     0.79711
             40  BR14  X      1.99697     1.99440
             41  BR14  Y      1.99229     1.98568
             42  BR14  Z      1.99529     1.99132
             43  BR14 XX      1.34412     1.73684
             44  BR14 YY      1.34406     1.73691
             45  BR14 ZZ      1.34412     1.73688
             46  BR14 XY      1.99989     1.99990
             47  BR14 XZ      1.99993     1.99993
             48  BR14 YZ      1.99983     1.99983
             49  BR14  S      1.97922     1.96823
             50  BR14  X      1.80541     1.81022
             51  BR14  Y      1.49983     1.51277
             52  BR14  Z      1.70002     1.70669
             53  BR15  S      2.00078     1.99917
             54  BR15  S      1.99679     1.99274
             55  BR15  X      1.99996     1.99973
             56  BR15  Y      1.99989     1.99930
             57  BR15  Z      1.99993     1.99958
             58  BR15  S      1.96983     0.79706
             59  BR15  X      1.99739     1.99513
             60  BR15  Y      1.99324     1.98740
             61  BR15  Z      1.99599     1.99252
             62  BR15 XX      1.34410     1.73682
             63  BR15 YY      1.34400     1.73692
             64  BR15 ZZ      1.34408     1.73687
             65  BR15 XY      1.99987     1.99988
             66  BR15 XZ      1.99992     1.99993
             67  BR15 YZ      1.99980     1.99981
             68  BR15  S      1.97414     1.96081
             69  BR15  X      1.82738     1.83231
             70  BR15  Y      1.55342     1.56619
             71  BR15  Z      1.73467     1.74224

          ----- MULLIKEN ATOMIC OVERLAP POPULATIONS -----
          (OFF-DIAGONAL ELEMENTS NEED TO BE MULTIPLIED BY 2)

             1           2           3           4           5

    1    4.7370904
    2    0.3597850   4.7860752
    3   -0.0353494   0.3561971   4.7552205
    4   -0.0432038  -0.0338463   0.3740219   4.8578427
    5    0.3742920  -0.0324507  -0.0457055   0.5996822   4.8511205
    6    0.3800354  -0.0155923   0.0010841   0.0012868  -0.0237424
    7    0.3849139  -0.0240949   0.0010361  -0.0010069  -0.0197704
    8   -0.0246760   0.3739145  -0.0286410   0.0018827   0.0015147
    9   -0.0138279   0.3806276  -0.0127847   0.0004208   0.0007015
   10    0.0002865  -0.0273824   0.3787983  -0.0270851  -0.0033164
   11    0.0010230  -0.0131499   0.3823865  -0.0165416   0.0012981
   12    0.0016322   0.0010951  -0.0201061   0.3925500  -0.0225968
   13   -0.0192498   0.0010786   0.0016995  -0.0247980   0.3910985
   14   -0.0000260  -0.0000430  -0.0030375  -0.0095514  -0.0082231
   15   -0.0000001  -0.0000001   0.0000008   0.0000988   0.0000266

             6           7           8           9          10

    6    0.6236758
    7   -0.0245410   0.6280159
    8    0.0013250  -0.0102567   0.6850018
    9   -0.0024770   0.0015695  -0.0350200   0.6098260
   10   -0.0000753   0.0009059  -0.0135928   0.0018238   0.6627081
   11   -0.0000149  -0.0000544   0.0010334  -0.0014818  -0.0291723
   12   -0.0000308  -0.0000415  -0.0000329  -0.0000118  -0.0000629
   13   -0.0011951  -0.0001708  -0.0000265  -0.0000160  -0.0000555
   14    0.0000058  -0.0000011   0.0000013  -0.0000144   0.0001069
   15   -0.0000002   0.0000000   0.0000000   0.0000001   0.0000000

            11          12          13          14          15

   11    0.6101372
   12   -0.0010293   0.5869456
   13   -0.0000255  -0.0026569   0.5908677
   14   -0.0002415  -0.0068797  -0.0001178  34.8750413
   15   -0.0000020   0.0000197  -0.0000001   0.1210699  34.9539677

          TOTAL MULLIKEN AND LOWDIN ATOMIC POPULATIONS
       ATOM         MULL.POP.    CHARGE          LOW.POP.     CHARGE
    1 C             6.102726   -0.102726         6.037221   -0.037221
    2 C             6.112213   -0.112213         6.052041   -0.052041
    3 C             6.104821   -0.104821         6.040498   -0.040498
    4 C             6.071753   -0.071753         6.035535   -0.035535
    5 C             6.063929   -0.063929         6.037192   -0.037192
    6 H             0.939744    0.060256         0.971865    0.028135
    7 H             0.936503    0.063497         0.969455    0.030545
    8 H             0.952427    0.047573         0.980403    0.019597
    9 H             0.929336    0.070664         0.962344    0.037656
   10 H             0.943887    0.056113         0.974824    0.025176
   11 H             0.934165    0.065835         0.967293    0.032707
   12 H             0.928794    0.071206         0.961895    0.038105
   13 H             0.936432    0.063568         0.967980    0.032020
   14 BR           34.968090    0.031910        34.967053    0.032947
   15 BR           35.075181   -0.075181        35.074403   -0.074403

          -------------------------------
          BOND ORDER AND VALENCE ANALYSIS     BOND ORDER THRESHOLD=0.050
          -------------------------------

                   BOND                       BOND                       BOND
  ATOM PAIR DIST  ORDER      ATOM PAIR DIST  ORDER      ATOM PAIR DIST  ORDER
    1   2  1.556  0.984        1   5  1.535  0.994        1   6  1.090  0.973
    1   7  1.089  0.967        2   3  1.556  0.982        2   8  1.094  0.985
    2   9  1.087  0.973        3   4  1.524  0.993        3  10  1.094  0.969
    3  11  1.087  0.972        4   5  1.319  1.885        4  12  1.081  0.967
    4  14  2.506  0.062        5  13  1.082  0.970       14  15  2.286  0.932

                       TOTAL       BONDED        FREE
      ATOM            VALENCE     VALENCE     VALENCE
    1 C                 3.963       3.963      -0.000
    2 C                 3.958       3.958      -0.000
    3 C                 3.962       3.962      -0.000
    4 C                 3.969       3.969      -0.000
    5 C                 3.969       3.969       0.000
    6 H                 0.996       0.996      -0.000
    7 H                 0.996       0.996      -0.000
    8 H                 0.998       0.998       0.000
    9 H                 0.995       0.995      -0.000
   10 H                 0.997       0.997      -0.000
   11 H                 0.996       0.996       0.000
   12 H                 0.995       0.995       0.000
   13 H                 0.996       0.996       0.000
   14 BR                1.021       1.021      -0.000
   15 BR                0.995       0.995      -0.000

          ---------------------
          ELECTROSTATIC MOMENTS
          ---------------------

 POINT   1           X           Y           Z (BOHR)    CHARGE
                 3.227075   -2.439153    1.996125       -0.00 (A.U.)
         DX          DY          DZ         /D/  (DEBYE)
    -0.913765    1.078525   -0.980931    1.720583
 ...... END OF PROPERTY EVALUATION ......
 STEP CPU TIME =     0.05 TOTAL CPU TIME =        304.2 (      5.1 MIN)
 TOTAL WALL CLOCK TIME=        305.3 SECONDS, CPU UTILIZATION IS    99.63%
  $VIB   
          IVIB=   0 IATOM=   0 ICOORD=   0 E=    -5283.5733801693
 -2.370509096E-02 1.405003146E-02-2.471867081E-02 6.582904761E-02-2.335047548E-02
  4.552165241E-02 5.141574386E-03-1.472932643E-02 1.897779750E-02 1.047300365E-02
 -1.300396317E-02 1.224965167E-02 1.385154735E-02-1.107360260E-02 2.804241618E-02
  1.052882349E-02 4.899719759E-03-2.239080280E-03-8.033294955E-03-5.465610841E-03
  5.920384775E-04 9.400757512E-05-4.225504402E-03-3.904144464E-03-4.201951653E-02
  1.408295532E-02-1.913594381E-02-2.282061111E-03 3.838491710E-03 3.293196026E-03
 -8.384433138E-03 8.063978643E-03-2.340426551E-02-1.975293530E-03-5.701896283E-04
 -2.112954602E-03-1.477432814E-03 2.271910226E-03-7.087606427E-03-1.427470601E-02
  1.903778260E-02-2.193379154E-02-3.766175013E-03 6.173802831E-03-4.140294832E-03
 -9.137651097E-01 1.078524802E+00-9.809305170E-01
 ......END OF GEOMETRY SEARCH......
 STEP CPU TIME =     0.01 TOTAL CPU TIME =        304.2 (      5.1 MIN)
 TOTAL WALL CLOCK TIME=        305.3 SECONDS, CPU UTILIZATION IS    99.63%
               992179  WORDS OF DYNAMIC MEMORY USED
 EXECUTION OF GAMESS TERMINATED NORMALLY Sun Nov 14 16:46:10 2021
 DDI: 263640 bytes (0.3 MB / 0 MWords) used by master data server.

 ----------------------------------------
 CPU timing information for all processes
 ========================================
 0: 298.72 + 6.136 = 304.208
 ----------------------------------------
 ddikick.x: exited gracefully.
----- accounting info -----
Files used on the master node chemcompute-node-0.novalocal were:
-rw-r--r--. 1 chemcomp chemcomp     1271 Nov 14 16:41 /scratch/306482/342493.F05
-rw-rw-r--. 1 chemcomp chemcomp 15481376 Nov 14 16:45 /scratch/306482/342493.F08
-rw-rw-r--. 1 chemcomp chemcomp 85196800 Nov 14 16:46 /scratch/306482/342493.F10
-rw-rw-r--. 1 chemcomp chemcomp   920520 Nov 14 16:46 /scratch/306482/342493.F18
Sun Nov 14 16:46:13 UTC 2021
0.159u 0.129s 5:09.10 0.0%	0+0k 8+216io 0pf+0w
Finishing Up...
Looking for IR data...
Looking for Raman data...
vibramans not found
Looking for thermodynamics data...
Looking for UV-Vis data...
306482
