----- GAMESS execution script 'rungms' -----
This job is running on host chemcompute-node-0.novalocal
under operating system Linux at Sun Nov 14 16:49:28 UTC 2021
SLURM has assigned the following compute nodes to this run:
chemcompute-node-0
Available scratch disk space (Kbyte units) at beginning of the job is
Filesystem     1K-blocks     Used Available Use% Mounted on
/dev/sda1       62903276 16677988  46225288  27% /
GAMESS temporary binary files will be written to /scratch/306483
GAMESS supplementary output files will be written to /data/slurm/342494
Copying input file 342494.inp to your run's scratch directory...
The generated host list is
chemcompute-node-0.novalocal

 Distributed Data Interface kickoff program.
 Initiating 1 compute processes on 1 nodes to run the following command:
 /data/gamess-2019R1-ddi/gamess.00.x 342494 

          ******************************************************
          *         GAMESS VERSION = 30 JUN 2019 (R1)          *
          *             FROM IOWA STATE UNIVERSITY             *
          * M.W.SCHMIDT, K.K.BALDRIDGE, J.A.BOATZ, S.T.ELBERT, *
          *   M.S.GORDON, J.H.JENSEN, S.KOSEKI, N.MATSUNAGA,   *
          *          K.A.NGUYEN, S.J.SU, T.L.WINDUS,           *
          *       TOGETHER WITH M.DUPUIS, J.A.MONTGOMERY       *
          *         J.COMPUT.CHEM.  14, 1347-1363(1993)        *
          **************** 64 BIT LINUX VERSION ****************

  SINCE 1993, STUDENTS AND POSTDOCS WORKING AT IOWA STATE UNIVERSITY
  AND ALSO IN THEIR VARIOUS JOBS AFTER LEAVING ISU HAVE MADE IMPORTANT
  CONTRIBUTIONS TO THE CODE:
     IVANA ADAMOVIC, CHRISTINE AIKENS, YURI ALEXEEV, POOJA ARORA,
     ANDREY ASADCHEV, ROB BELL, PRADIPTA BANDYOPADHYAY, JONATHAN BENTZ,
     COLLEEN BERTONI, BRETT BODE, KURT BRORSEN, CALEB CARLIN, GALINA CHABAN,
     WEI CHEN, CHEOL HO CHOI, PAUL DAY, ALBERT DEFUSCO, NUWAN DESILVA,
     TIM DUDLEY, DMITRI FEDOROV, ALEX FINDLATER, GRAHAM FLETCHER, 
     MARK FREITAG, KURT GLAESEMANN, ANASTASIA GUNINA,
     DAN KEMP, GRANT MERRILL, NORIYUKI MINEZAWA, JONATHAN MULLIN,
     TAKESHI NAGATA, SEAN NEDD, HEATHER NETZLOFF, BOSILJKA NJEGIC, RYAN OLSON,
     MIKE PAK, BUU PHAM,
     SPENCER PRUITT, LUKE ROSKOP, JIM SHOEMAKER, LYUDMILA SLIPCHENKO,
     TONY SMITH, SAROM SOK LEANG, JIE SONG, TETSUYA TAKETSUGU, SIMON WEBB,
     PENG XU, SOOHAENG YOO, FEDERICO ZAHARIEV

  ADDITIONAL CODE HAS BEEN PROVIDED BY COLLABORATORS IN OTHER GROUPS:
     IOWA STATE UNIVERSITY:
          JOE IVANIC, AARON WEST, LAIMUTIS BYTAUTAS, KLAUS RUEDENBERG
     UNIVERSITY OF TOKYO: KIMIHIKO HIRAO, TAKAHITO NAKAJIMA,
          TAKAO TSUNEDA, MUNEAKI KAMIYA, SUSUMU YANAGISAWA,
          KIYOSHI YAGI, MAHITO CHIBA, SEIKEN TOKURA, NAOAKI KAWAKAMI
     UNIVERSITY OF AARHUS: FRANK JENSEN
     UNIVERSITY OF IOWA: VISVALDAS KAIRYS, HUI LI
     NATIONAL INST. OF STANDARDS AND TECHNOLOGY: WALT STEVENS, DAVID GARMER
     UNIVERSITY OF PISA: BENEDETTA MENNUCCI, JACOPO TOMASI
     UNIVERSITY OF MEMPHIS: HENRY KURTZ, PRAKASHAN KORAMBATH
     UNIVERSITY OF ALBERTA: TOBY ZENG, MARIUSZ KLOBUKOWSKI
     UNIVERSITY OF NEW ENGLAND: MARK SPACKMAN
     MIE UNIVERSITY: HIROAKI UMEDA
     NAT. INST. OF ADVANCED INDUSTRIAL SCIENCE AND TECHNOLOGY: KAZUO KITAURA
     MICHIGAN STATE UNIVERSITY:
          KAROL KOWALSKI, MARTA WLOCH, JEFFREY GOUR, JESSE LUTZ,
          WEI LI, JUN SHEN, J. EMILIANO DEUSTUA, PIOTR PIECUCH
     UNIVERSITY OF MINNESOTA:
          YINAN SHU
     UNIVERSITY OF SILESIA: MONIKA MUSIAL, STANISLAW KUCHARSKI
     FACULTES UNIVERSITAIRES NOTRE-DAME DE LA PAIX:
          OLIVIER QUINET, BENOIT CHAMPAGNE
     UNIVERSITY OF CALIFORNIA - SANTA BARBARA: BERNARD KIRTMAN
     INSTITUTE FOR MOLECULAR SCIENCE:
          KAZUYA ISHIMURA, MICHIO KATOUDA, AND SHIGERU NAGASE
     UNIVERSITY OF NOTRE DAME: ANNA POMOGAEVA, DAN CHIPMAN
     KYUSHU UNIVERSITY:
          HARUYUKI NAKANO,
          FENG LONG GU, JACEK KORCHOWIEC, MARCIN MAKOWSKI, AND YURIKO AOKI,
          HIROTOSHI MORI AND EISAKU MIYOSHI
     PENNSYLVANIA STATE UNIVERSITY:
          TZVETELIN IORDANOV, CHET SWALINA, JONATHAN SKONE,
          SHARON HAMMES-SCHIFFER
     WASEDA UNIVERSITY:
          MASATO KOBAYASHI, TOMOKO AKAMA, TSUGUKI TOUMA,
          TAKESHI YOSHIKAWA, YASUHIRO IKABATA, JUNJI SEINO,
          YUYA NAKAJIMA, HIROMI NAKAI
     NANJING UNIVERSITY: SHUHUA LI
     UNIVERSITY OF NEBRASKA:
          PEIFENG SU, DEJUN SI, NANDUN THELLAMUREGE, YALI WANG, HUI LI
     UNIVERSITY OF ZURICH: ROBERTO PEVERATI, KIM BALDRIDGE
     N. COPERNICUS UNIVERSITY AND JACKSON STATE UNIVERSITY:
          MARIA BARYSZ
     UNIVERSITY OF COPENHAGEN: Jimmy Kromann, CASPER STEINMANN
     TOKYO INSTITUTE OF TECHNOLOGY: HIROYA NAKATA
     NAGOYA UNIVERSITY: YOSHIO NISHIMOTO, STEPHAN IRLE
     MOSCOW STATE UNIVERSITY: VLADIMIR MIRONOV
     A.N.NESMEYANOV INSTITUTE OF ORGANOELEMENT COMPOUNDS OF RUSSIAN ACADEMY OF SCIENCES:
          IGOR S. GERASIMOV

 EXECUTION OF GAMESS BEGUN Sun Nov 14 16:49:28 2021

            ECHO OF THE FIRST FEW INPUT CARDS -
 INPUT CARD>!   File created by the GAMESS Input Deck Generator Plugin for Avogadro         
 INPUT CARD> $BASIS GBASIS=STO NGAUSS=3 $END                                                
 INPUT CARD> $CONTRL SCFTYP=RHF RUNTYP=SADPOINT NZVAR=1 mult=1  ICHARG=0 $END               
 INPUT CARD> $STATPT hssend=.t. OPTTOL=0.0005 NSTEP=50 $END                                 
 INPUT CARD> $STATPT HESS=calc ihrep=5 $END                                                 
 INPUT CARD> $FORCE nvib=2 $END                                                             
 INPUT CARD> $ZMAT DLC=.t. auto=.t. nonvdw(1)=4,14,4,5,14,5,15,5 $END                       
 INPUT CARD>!$ZMAT IFZMAT(1)=1,4,14,1,14,15 fvalue(1)=2.01,2.20 $END                        
 INPUT CARD>                                                                                
 INPUT CARD> $DATA                                                                          
 INPUT CARD>Title                                                                           
 INPUT CARD>C1                                                                              
 INPUT CARD>C     6.0    -0.32404765     1.36948299     0.73583418                          
 INPUT CARD>C     6.0    -1.13168406     0.06639479     0.48575938                          
 INPUT CARD>C     6.0    -0.37060976    -0.67474347    -0.64280725                          
 INPUT CARD>C     6.0     1.09974670    -0.21552059    -0.47082970                          
 INPUT CARD>C     6.0     1.03362918     1.09119308     0.13225538                          
 INPUT CARD>H     1.0    -0.27136046     1.64004028     1.79157448                          
 INPUT CARD>H     1.0    -0.76598698     2.22108221     0.21107264                          
 INPUT CARD>H     1.0    -2.16041446     0.27586591     0.20787175                          
 INPUT CARD>H     1.0    -1.14347112    -0.54055262     1.38769281                          
 INPUT CARD>H     1.0    -0.71744782    -0.35106236    -1.62227261                          
 INPUT CARD>H     1.0    -0.47391328    -1.75544739    -0.57955796                          
 INPUT CARD>H     1.0     1.71677434    -0.33636701    -1.35972655                          
 INPUT CARD>H     1.0     1.86717379     1.78755891     0.15462473                          
 INPUT CARD>Br    35.0     1.92645204    -0.97012365     0.95157403                         
 INPUT CARD>Br    35.0     3.14784551    -3.42578030     2.16728282                         
 INPUT CARD> $END                                                                           
    1000000 WORDS OF MEMORY AVAILABLE

     BASIS OPTIONS
     -------------
     GBASIS=STO          IGAUSS=       3      POLAR=NONE    
     NDFUNC=       0     NFFUNC=       0     DIFFSP=       F
     NPFUNC=       0      DIFFS=       F     BASNAM=        


     RUN TITLE
     ---------
 Title                                                                           

 THE POINT GROUP OF THE MOLECULE IS C1      
 THE ORDER OF THE PRINCIPAL AXIS IS     0

 ATOM      ATOMIC                      COORDINATES (BOHR)
           CHARGE         X                   Y                   Z
 C           6.0    -0.6123612655        2.5879475959        1.3905249726
 C           6.0    -2.1385727781        0.1254679601        0.9179521242
 C           6.0    -0.7003508948       -1.2750802703       -1.2147295654
 C           6.0     2.0782199189       -0.4072748598       -0.8897391199
 C           6.0     1.9532759231        2.0620559209        0.2499264286
 H           1.0    -0.5127969133        3.0992267380        3.3855848538
 H           1.0    -1.4475055024        4.1972367731        0.3988694531
 H           1.0    -4.0825913493        0.5213109793        0.3928206481
 H           1.0    -2.1608470917       -1.0214963337        2.6223591660
 H           1.0    -1.3557797903       -0.6634116650       -3.0656507103
 H           1.0    -0.8955662411       -3.3173145530       -1.0952057384
 H           1.0     3.2442330854       -0.6356414802       -2.5695105977
 H           1.0     3.5284468346        3.3779965268        0.2921983706
 BR         35.0     3.6404664841       -1.8332678727        1.7982141737
 BR         35.0     5.9485654656       -6.4737860611        4.0955706677

          INTERNUCLEAR DISTANCES (ANGS.)
          ------------------------------

                1 C          2 C          3 C          4 C          5 C     

   1 C       0.0000000    1.5533360 *  2.4661067 *  2.4485637 *  1.5116346 *
   2 C       1.5533360 *  0.0000000    1.5498976 *  2.4441404 *  2.4215198 *
   3 C       2.4661067 *  1.5498976 *  0.0000000    1.5499710 *  2.3856112 *
   4 C       2.4485637 *  2.4441404 *  1.5499710 *  0.0000000    1.4406886 *
   5 C       1.5116346 *  2.4215198 *  2.3856112 *  1.4406886 *  0.0000000  
   6 H       1.0911300 *  2.2184837 *  3.3606976    3.2313331    2.1811857 *
   7 H       1.0935750 *  2.2026949 *  3.0448712    3.1437217    2.1263772 *
   8 H       2.2015871 *  1.0859954 *  2.1978885 *  3.3661175    3.2973309  
   9 H       2.1782127 *  1.0872019 *  2.1767527 *  2.9311735 *  2.9964117 *
  10 H       2.9454554 *  2.1885294 *  1.0883099 *  2.1555483 *  2.8678807 *
  11 H       3.3938041    2.2105819 *  1.0874709 *  2.2044505 *  3.2988975  
  12 H       3.3861857    3.4178576    2.2328556 *  1.0887904 *  2.1750000 *
  13 H       2.3052209 *  3.4735003    3.4214772    2.2343825 *  1.0863804 *
  14 BR      3.2534677    3.2624454    2.8117244 *  1.8100000 *  2.3911174 *
  15 BR      6.0907830    5.7738359    5.2767734    4.6325062    5.3864920  

                6 H          7 H          8 H          9 H         10 H     

   1 C       1.0911300 *  1.0935750 *  2.2015871 *  2.1782127 *  2.9454554 *
   2 C       2.2184837 *  2.2026949 *  1.0859954 *  1.0872019 *  2.1885294 *
   3 C       3.3606976    3.0448712    2.1978885 *  2.1767527 *  1.0883099 *
   4 C       3.2313331    3.1437217    3.3661175    2.9311735 *  2.1555483 *
   5 C       2.1811857 *  2.1263772 *  3.2973309    2.9964117 *  2.8678807 *
   6 H       0.0000000    1.7550644 *  2.8173766 *  2.3829987 *  3.9771643  
   7 H       1.7550644 *  0.0000000    2.3933877 *  3.0254845    3.1590249  
   8 H       2.8173766 *  2.3933877 *  0.0000000    1.7586048 *  2.4134250 *
   9 H       2.3829987 *  3.0254845    1.7586048 *  0.0000000    3.0458651  
  10 H       3.9771643    3.1590249    2.4134250 *  3.0458651    0.0000000  
  11 H       4.1464000    4.0648729    2.7550981 *  2.4071462 *  1.7660295 *
  12 H       4.2177676    3.8951329    4.2266756    3.9712730    2.4483839 *
  13 H       2.6971642 *  2.6692067 *  4.3022689    4.0005678    3.7962263  
  14 BR      3.5141053    4.2404440    4.3368261    3.1303609    3.7414075  
  15 BR      6.1232887    7.1436615    6.7615901    5.2295026    6.2253605  

               11 H         12 H         13 H         14 BR        15 BR    

   1 C       3.3938041    3.3861857    2.3052209 *  3.2534677    6.0907830  
   2 C       2.2105819 *  3.4178576    3.4735003    3.2624454    5.7738359  
   3 C       1.0874709 *  2.2328556 *  3.4214772    2.8117244 *  5.2767734  
   4 C       2.2044505 *  1.0887904 *  2.2343825 *  1.8100000 *  4.6325062  
   5 C       3.2988975    2.1750000 *  1.0863804 *  2.3911174 *  5.3864920  
   6 H       4.1464000    4.2177676    2.6971642 *  3.5141053    6.1232887  
   7 H       4.0648729    3.8951329    2.6692067 *  4.2404440    7.1436615  
   8 H       2.7550981 *  4.2266756    4.3022689    4.3368261    6.7615901  
   9 H       2.4071462 *  3.9712730    4.0005678    3.1303609    5.2295026  
  10 H       1.7660295 *  2.4483839 *  3.7962263    3.7414075    6.2253605  
  11 H       0.0000000    2.7242548 *  4.3095947    2.9534475 *  4.8427557  
  12 H       2.7242548 *  0.0000000    2.6128416 *  2.4057686 *  4.9022683  
  13 H       4.3095947    2.6128416 *  0.0000000    2.8711418 *  5.7332206  
  14 BR      2.9534475 *  2.4057686 *  2.8711418 *  0.0000000    2.9999999 *
  15 BR      4.8427557    4.9022683    5.7332206    2.9999999 *  0.0000000  

  * ... LESS THAN  3.000


     ATOMIC BASIS SET
     ----------------
 THE CONTRACTED PRIMITIVE FUNCTIONS HAVE BEEN UNNORMALIZED
 THE CONTRACTED BASIS FUNCTIONS ARE NOW NORMALIZED TO UNITY

  SHELL TYPE  PRIMITIVE        EXPONENT          CONTRACTION COEFFICIENT(S)

 C         

      1   S       1            71.6168373    0.154328967295
      1   S       2            13.0450963    0.535328142282
      1   S       3             3.5305122    0.444634542185

      2   L       4             2.9412494   -0.099967229187    0.155916274999
      2   L       5             0.6834831    0.399512826089    0.607683718598
      2   L       6             0.2222899    0.700115468880    0.391957393099

 C         

      3   S       7            71.6168373    0.154328967295
      3   S       8            13.0450963    0.535328142282
      3   S       9             3.5305122    0.444634542185

      4   L      10             2.9412494   -0.099967229187    0.155916274999
      4   L      11             0.6834831    0.399512826089    0.607683718598
      4   L      12             0.2222899    0.700115468880    0.391957393099

 C         

      5   S      13            71.6168373    0.154328967295
      5   S      14            13.0450963    0.535328142282
      5   S      15             3.5305122    0.444634542185

      6   L      16             2.9412494   -0.099967229187    0.155916274999
      6   L      17             0.6834831    0.399512826089    0.607683718598
      6   L      18             0.2222899    0.700115468880    0.391957393099

 C         

      7   S      19            71.6168373    0.154328967295
      7   S      20            13.0450963    0.535328142282
      7   S      21             3.5305122    0.444634542185

      8   L      22             2.9412494   -0.099967229187    0.155916274999
      8   L      23             0.6834831    0.399512826089    0.607683718598
      8   L      24             0.2222899    0.700115468880    0.391957393099

 C         

      9   S      25            71.6168373    0.154328967295
      9   S      26            13.0450963    0.535328142282
      9   S      27             3.5305122    0.444634542185

     10   L      28             2.9412494   -0.099967229187    0.155916274999
     10   L      29             0.6834831    0.399512826089    0.607683718598
     10   L      30             0.2222899    0.700115468880    0.391957393099

 H         

     11   S      31             3.4252509    0.154328967295
     11   S      32             0.6239137    0.535328142282
     11   S      33             0.1688554    0.444634542185

 H         

     12   S      34             3.4252509    0.154328967295
     12   S      35             0.6239137    0.535328142282
     12   S      36             0.1688554    0.444634542185

 H         

     13   S      37             3.4252509    0.154328967295
     13   S      38             0.6239137    0.535328142282
     13   S      39             0.1688554    0.444634542185

 H         

     14   S      40             3.4252509    0.154328967295
     14   S      41             0.6239137    0.535328142282
     14   S      42             0.1688554    0.444634542185

 H         

     15   S      43             3.4252509    0.154328967295
     15   S      44             0.6239137    0.535328142282
     15   S      45             0.1688554    0.444634542185

 H         

     16   S      46             3.4252509    0.154328967295
     16   S      47             0.6239137    0.535328142282
     16   S      48             0.1688554    0.444634542185

 H         

     17   S      49             3.4252509    0.154328967295
     17   S      50             0.6239137    0.535328142282
     17   S      51             0.1688554    0.444634542185

 H         

     18   S      52             3.4252509    0.154328967295
     18   S      53             0.6239137    0.535328142282
     18   S      54             0.1688554    0.444634542185

 BR        

     19   S      55          2629.9974710    0.154328967295
     19   S      56           479.0573224    0.535328142282
     19   S      57           129.6516070    0.444634542185

     20   L      58           219.8350255   -0.099967229187    0.155916274999
     20   L      59            51.0849322    0.399512826089    0.607683718598
     20   L      60            16.6144055    0.700115468880    0.391957393099

     21   L      61            20.6524416   -0.219620369005    0.010587604289
     21   L      62             5.7619788    0.225595433605    0.595167005266
     21   L      63             2.2551994    0.900398426019    0.462001011973

     22   D      64            22.3657496    0.168659606013
     22   D      65             7.0128139    0.584798481745
     22   D      66             2.7316638    0.405677952331

     23   L      67             1.3960375   -0.308844121382   -0.121546859998
     23   L      68             0.5152256    0.019606411652    0.571522760389
     23   L      69             0.2275291    1.131034441567    0.549894947089

 BR        

     24   S      70          2629.9974710    0.154328967295
     24   S      71           479.0573224    0.535328142282
     24   S      72           129.6516070    0.444634542185

     25   L      73           219.8350255   -0.099967229187    0.155916274999
     25   L      74            51.0849322    0.399512826089    0.607683718598
     25   L      75            16.6144055    0.700115468880    0.391957393099

     26   L      76            20.6524416   -0.219620369005    0.010587604289
     26   L      77             5.7619788    0.225595433605    0.595167005266
     26   L      78             2.2551994    0.900398426019    0.462001011973

     27   D      79            22.3657496    0.168659606013
     27   D      80             7.0128139    0.584798481745
     27   D      81             2.7316638    0.405677952331

     28   L      82             1.3960375   -0.308844121382   -0.121546859998
     28   L      83             0.5152256    0.019606411652    0.571522760389
     28   L      84             0.2275291    1.131034441567    0.549894947089

 TOTAL NUMBER OF BASIS SET SHELLS             =   28
 NUMBER OF CARTESIAN GAUSSIAN BASIS FUNCTIONS =   71
 NUMBER OF ELECTRONS                          =  108
 CHARGE OF MOLECULE                           =    0
 SPIN MULTIPLICITY                            =    1
 NUMBER OF OCCUPIED ORBITALS (ALPHA)          =   54
 NUMBER OF OCCUPIED ORBITALS (BETA )          =   54
 TOTAL NUMBER OF ATOMS                        =   15
 THE NUCLEAR REPULSION ENERGY IS      774.9664539827

     $CONTRL OPTIONS
     ---------------
 SCFTYP=RHF          RUNTYP=SADPOINT     EXETYP=RUN     
 MPLEVL=       0     CITYP =NONE         CCTYP =NONE         VBTYP =NONE    
 DFTTYP=NONE         TDDFT =NONE    
 MULT  =       1     ICHARG=       0     NZVAR =       1     COORD =UNIQUE  
 PP    =NONE         RELWFN=NONE         LOCAL =NONE         NUMGRD=       F
 ISPHER=      -1     NOSYM =       0     MAXIT =      30     UNITS =ANGS    
 PLTORB=       F     MOLPLT=       F     AIMPAC=       F     FRIEND=        
 NPRINT=       7     IREST =       0     GEOM  =INPUT   
 NORMF =       0     NORMP =       0     ITOL  =      20     ICUT  =       9
 INTTYP=BEST         GRDTYP=BEST         QMTTOL= 1.0E-06

     $SYSTEM OPTIONS
     ---------------
  REPLICATED MEMORY=     1000000 WORDS (ON EVERY NODE).
 DISTRIBUTED MEMDDI=           0 MILLION WORDS IN AGGREGATE,
 MEMDDI DISTRIBUTED OVER   1 PROCESSORS IS           0 WORDS/PROCESSOR.
 TOTAL MEMORY REQUESTED ON EACH PROCESSOR=     1000000 WORDS.
 TIMLIM=      525600.00 MINUTES, OR     365.0 DAYS.
 PARALL= F  BALTYP=  DLB     KDIAG=    0  COREFL= F
 MXSEQ2=     300 MXSEQ3=     150  mem10=         0

          ----------------
          PROPERTIES INPUT
          ----------------

     MOMENTS            FIELD           POTENTIAL          DENSITY
 IEMOM =       1   IEFLD =       0   IEPOT =       0   IEDEN =       0
 WHERE =COMASS     WHERE =NUCLEI     WHERE =NUCLEI     WHERE =NUCLEI  
 OUTPUT=BOTH       OUTPUT=BOTH       OUTPUT=BOTH       OUTPUT=BOTH    
 IEMINT=       0   IEFINT=       0                     IEDINT=       0
                                                       MORB  =       0
          EXTRAPOLATION IN EFFECT
          SOSCF IN EFFECT
 ORBITAL PRINTING OPTION: NPREO=     1    71     2     1

     -------------------------------
     INTEGRAL TRANSFORMATION OPTIONS
     -------------------------------
     NWORD  =            0
     CUTOFF = 1.0E-09     MPTRAN =       0
     DIRTRF =       F     AOINTS =DUP     

          ----------------------
          INTEGRAL INPUT OPTIONS
          ----------------------
 NOPK  =       1 NORDER=       0 SCHWRZ=       T


 -----------------------------------------------
  STATISTICS ON AUTOMATIC COORDINATE GENERATION 
 -----------------------------------------------
  NUMBER OF USER SPECIFIED BONDS                             4
  NUMBER OF BONDS                                           18
  NUMBER OF ANGLES                                          47
  NUMBER OF TORSIONS                                        55
  NUMBER OF EXTRA COORD.                                     0
  NUMBER OF EXTRA COORD. FOR CONSTRAINTS                     0
  NUMBER OF CONSTRAINED COORD.                               0

  TOTAL NUMBER OF PRIMITIVES                               120
 -----------------------------------------------

   --- ENCODED Z MATRIX ---
 COORD  TYPE   I   J   K   L   M   N
    1      1    1   6
    2      1    1   2
    3      1    1   5
    4      1    1   7
    5      1    2   3
    6      1    2   8
    7      1    2   9
    8      1    3   4
    9      1    3  11
   10      1    3  10
   11      1    4  14
   12      1    4  12
   13      1    4   5
   14      1    4  14
   15      1    4   5
   16      1    5  13
   17      1    5  15
   18      1    5  14
   19      2    1   5  15
   20      2    1   2   8
   21      2    1   5  13
   22      2    1   5   4
   23      2    1   2   9
   24      2    1   5   4
   25      2    1   2   3
   26      2    1   5  14
   27      2    2   3  10
   28      2    2   1   7
   29      2    2   3  11
   30      2    2   1   6
   31      2    2   3   4
   32      2    2   1   5
   33      2    3   2   8
   34      2    3   4  14
   35      2    3   4   5
   36      2    3   4  12
   37      2    3   4  14
   38      2    3   4   5
   39      2    3   2   9
   40      2    4   5  15
   41      2    4   5  14
   42      2    4   3  11
   43      2    4  14   5
   44      2    4   3  10
   45      2    4   5  15
   46      2    4   5  13
   47      2    4   5  14
   48      2    4  14   5
   49      2    4   5  13
   50      2    5   4  14
   51      2    5   4  14
   52      2    5   1   6
   53      2    5   4  14
   54      2    5   4  14
   55      2    5   1   7
   56      2    5   4  12
   57      2    5   4  12
   58      2    6   1   7
   59      2    8   2   9
   60      2   10   3  11
   61      2   12   4  14
   62      2   12   4  14
   63      2   13   5  14
   64      2   13   5  15
   65      2   14   5  15
   66      3    1   2   3  11
   67      3    1   2   3   4
   68      3    1   5   4  12
   69      3    1   5   4  14
   70      3    1   5   4   3
   71      3    1   5  14   4
   72      3    1   2   3  10
   73      3    2   3   4   5
   74      3    2   3   4  12
   75      3    2   3   4  14
   76      3    2   1   5   4
   77      3    2   1   5  15
   78      3    2   1   5  13
   79      3    2   1   5  14
   80      3    3   2   1   7
   81      3    3   2   1   5
   82      3    3   2   1   6
   83      3    3   4   5  14
   84      3    3   4   5  15
   85      3    3   4   5  13
   86      3    3   4  14   5
   87      3    4  14   5  15
   88      3    4  14   5  13
   89      3    4   3   2   9
   90      3    4   3   2   8
   91      3    4   5   1   7
   92      3    4   5   1   6
   93      3    5  14   4  12
   94      3    5   1   2   8
   95      3    5   4   3  10
   96      3    5   4   3  11
   97      3    5   1   2   9
   98      3    6   1   5  13
   99      3    6   1   5  15
  100      3    6   1   2   9
  101      3    6   1   2   8
  102      3    6   1   5  14
  103      3    7   1   5  15
  104      3    7   1   2   8
  105      3    7   1   2   9
  106      3    7   1   5  13
  107      3    7   1   5  14
  108      3    8   2   3  11
  109      3    8   2   3  10
  110      3    9   2   3  11
  111      3    9   2   3  10
  112      3   10   3   4  12
  113      3   10   3   4  14
  114      3   11   3   4  12
  115      3   11   3   4  14
  116      3   12   4   5  13
  117      3   12   4   5  14
  118      3   12   4   5  15
  119      3   13   5   4  14
  120      3   14   4   5  15

          INDEP./SYM. INTERNAL COORDINATES
          --------------------------------
 CRD  1=   0.1565 (  8) -0.1092 ( 28)  0.1035 ( 32)  0.3566 ( 40)  0.3566 ( 45)
          -0.2170 ( 64)  0.3674 ( 65) -0.3948 ( 77)  0.1291 ( 84) -0.3105 ( 99)
          -0.3220 (103)
 CRD  2=   0.1231 (  3)  0.1000 (  6)  0.1938 (  8)  0.2318 ( 19) -0.1636 ( 25)
           0.2205 ( 26) -0.1119 ( 27)  0.2175 ( 31)  0.1400 ( 32)  0.1764 ( 34)
          -0.1637 ( 35)  0.1764 ( 37) -0.1637 ( 38)  0.1128 ( 39) -0.1492 ( 44)
          -0.1655 ( 55) -0.1197 ( 61) -0.1197 ( 62) -0.1166 ( 67) -0.1514 ( 68)
          -0.2576 ( 69) -0.1185 ( 71)  0.1070 ( 73)  0.1234 ( 74)  0.1106 ( 75)
          -0.1135 ( 78)  0.1023 ( 81)  0.1579 ( 83)  0.1464 ( 84)  0.1347 ( 86)
          -0.1115 ( 89) -0.1427 ( 90)  0.1290 ( 94)  0.1563 ( 97)  0.1062 (117)
          -0.1502 (119)
 CRD  3=   0.2637 (  2)  0.1978 (  3)  0.1234 (  6)  0.1361 (  7) -0.3028 (  8)
          -0.1783 (  9) -0.1553 ( 13) -0.1553 ( 15)  0.1893 ( 20)  0.1430 ( 21)
           0.1810 ( 23) -0.3624 ( 25) -0.1110 ( 29)  0.3301 ( 31)  0.1135 ( 32)
           0.1008 ( 33) -0.1940 ( 42) -0.1518 ( 44) -0.1550 ( 59)  0.1488 ( 60)
          -0.1135 ( 73) -0.1019 ( 75)
 CRD  4=  -0.1575 (  1) -0.4839 (  3) -0.1119 (  4)  0.1416 (  5)  0.3836 (  8)
          -0.2137 ( 25)  0.3127 ( 32)  0.1254 ( 33) -0.2514 ( 52) -0.1461 ( 55)
           0.1532 ( 58)
 CRD  5=   0.1272 (  1)  0.2522 (  2)  0.1034 (  3)  0.6665 (  5)  0.1309 (  6)
           0.1448 (  9)  0.1268 ( 22)  0.1268 ( 24)  0.2166 ( 29)  0.1132 ( 39)
          -0.1209 ( 42)  0.1086 ( 71) -0.1110 ( 96)  0.1274 (113) -0.1190 (114)
 CRD  6=  -0.1418 (  1) -0.6326 (  2)  0.2195 (  5) -0.2575 (  8) -0.1018 (  9)
          -0.1414 ( 16) -0.1717 ( 20) -0.1172 ( 28) -0.1293 ( 30)  0.1072 ( 32)
           0.1902 ( 33)  0.1116 ( 39)  0.1259 ( 89) -0.1088 ( 94) -0.1198 (101)
           0.1196 (105) -0.1542 (108)  0.1684 (111)
 CRD  7=  -0.2225 (  3) -0.1089 (  5) -0.1109 (  8)  0.2259 ( 20) -0.2316 ( 23)
          -0.2300 ( 27)  0.1795 ( 28)  0.1812 ( 29) -0.1219 ( 30) -0.2356 ( 33)
           0.2445 ( 39) -0.1817 ( 42)  0.2097 ( 44) -0.1848 ( 55) -0.1342 ( 66)
          -0.1517 ( 70) -0.1513 ( 72)  0.1124 ( 74)  0.1134 ( 75)  0.1465 ( 76)
           0.1411 ( 79) -0.2068 ( 80) -0.1270 ( 82)  0.1445 ( 89)  0.1174 ( 90)
 CRD  8=   0.4714 (  3)  0.1001 (  5)  0.4510 (  8)  0.2365 ( 12)  0.2817 ( 16)
           0.1404 ( 21) -0.1184 ( 23) -0.1708 ( 30)  0.1247 ( 36)  0.1691 ( 44)
          -0.1339 ( 72) -0.1030 ( 82)  0.1006 ( 89) -0.1128 (101)  0.1197 (105)
 CRD  9=  -0.2886 (  4) -0.1242 (  8)  0.1150 (  9)  0.1279 ( 13)  0.1279 ( 15)
           0.2954 ( 16) -0.2234 ( 17) -0.1264 ( 19)  0.1209 ( 21) -0.1656 ( 22)
          -0.1044 ( 23) -0.1656 ( 24) -0.1303 ( 26)  0.1197 ( 27) -0.1876 ( 30)
           0.1197 ( 32)  0.1275 ( 35) -0.1573 ( 36)  0.1275 ( 38) -0.1515 ( 44)
           0.1769 ( 52) -0.2241 ( 55) -0.1436 ( 67) -0.1154 ( 71)  0.1294 ( 81)
          -0.1094 ( 86) -0.1083 ( 90) -0.1245 ( 92)  0.1521 ( 94)  0.1202 ( 95)
           0.1892 ( 97) -0.1033 ( 99)  0.1109 (113)
 CRD 10=  -0.1664 (  7)  0.1549 ( 10) -0.5543 ( 12) -0.1549 ( 13) -0.1549 ( 15)
           0.1400 ( 16)  0.1694 ( 17) -0.1116 ( 18)  0.2143 ( 21) -0.1237 ( 28)
           0.1706 ( 29)  0.1107 ( 34)  0.1209 ( 35) -0.1381 ( 36)  0.1107 ( 37)
           0.1209 ( 38) -0.1036 ( 42)  0.1023 ( 44) -0.1278 ( 46) -0.1278 ( 49)
           0.1008 ( 55) -0.1343 ( 63) -0.1079 ( 71)  0.1333 ( 83)  0.1220 ( 84)
          -0.1454 ( 86) -0.1317 ( 96)
 CRD 11=   0.4097 (  6) -0.4765 (  7) -0.1608 ( 10)  0.1557 ( 12)  0.1110 ( 20)
          -0.1106 ( 23)  0.1067 ( 33) -0.1269 ( 39) -0.1667 ( 42) -0.1701 ( 52)
          -0.2394 ( 66) -0.1106 ( 67) -0.2051 ( 72)  0.2114 ( 80)  0.1131 ( 81)
           0.2480 ( 82)
 CRD 12=  -0.1986 (  1)  0.2154 (  4)  0.3857 (  9) -0.4770 ( 10)  0.1326 ( 16)
          -0.1976 ( 20)  0.1452 ( 23) -0.1424 ( 27)  0.1399 ( 29)  0.1657 ( 33)
          -0.1449 ( 39) -0.1190 ( 56) -0.1190 ( 57)  0.1561 ( 74)  0.1374 ( 75)
          -0.1734 ( 89) -0.2014 ( 90) -0.1025 ( 95)
 CRD 13=  -0.3713 (  1)  0.3489 (  4)  0.1513 (  7) -0.1548 (  9)  0.1659 ( 10)
          -0.1293 ( 12)  0.1677 ( 13)  0.1677 ( 15)  0.3633 ( 16) -0.1082 ( 21)
          -0.1198 ( 36)  0.1628 ( 46)  0.1628 ( 49)  0.1481 ( 56)  0.1481 ( 57)
          -0.1067 ( 71) -0.1316 ( 74)  0.1216 ( 79) -0.1753 ( 88)  0.1514 ( 93)
          -0.1397 ( 94) -0.1257 ( 97)
 CRD 14=  -0.1999 (  1)  0.2218 (  4)  0.1805 (  6) -0.1274 (  9) -0.1061 ( 13)
          -0.1061 ( 15) -0.3391 ( 16) -0.1411 ( 18)  0.1403 ( 21)  0.1622 ( 27)
           0.1739 ( 28) -0.1435 ( 29) -0.1620 ( 30) -0.1407 ( 46) -0.1407 ( 49)
          -0.1398 ( 63) -0.1398 ( 64) -0.1497 ( 91) -0.1390 ( 92)  0.1821 ( 95)
           0.1711 ( 96) -0.1688 ( 99) -0.1654 (102) -0.1796 (103) -0.1762 (107)
           0.1659 (112)  0.1659 (113)  0.1549 (114)  0.1549 (115)
 CRD 15=   0.1146 ( 10) -0.1381 ( 12) -0.1362 ( 16) -0.7836 ( 17)  0.1608 ( 18)
          -0.1119 ( 27) -0.1222 ( 42)  0.1267 ( 44) -0.1178 ( 95) -0.1231 (112)
          -0.1034 (114)
 CRD 16=   0.1729 (  1)  0.1131 (  4) -0.3579 (  6) -0.3895 (  7)  0.1891 (  9)
           0.3743 ( 10)  0.1567 ( 12)  0.1685 ( 17)  0.1351 ( 23) -0.1021 ( 30)
           0.1448 ( 33) -0.1151 ( 42) -0.1253 ( 55) -0.1358 ( 59)  0.1039 ( 60)
          -0.1114 ( 66) -0.1060 ( 89) -0.1111 ( 94) -0.1521 (101) -0.1014 (102)
          -0.2009 (104) -0.1025 (105) -0.2120 (110) -0.1253 (111) -0.1201 (113)
 CRD 17=  -0.1266 (  1)  0.1119 (  4) -0.3086 (  6) -0.3264 (  7)  0.3348 (  9)
           0.1532 ( 10) -0.1297 ( 12) -0.2255 ( 17)  0.1545 ( 20) -0.1322 ( 29)
           0.1382 ( 39) -0.1398 ( 44) -0.1081 ( 52) -0.1190 ( 59)  0.1096 ( 72)
           0.1252 ( 90)  0.1018 ( 96)  0.1032 ( 97)  0.1919 (100)  0.1013 (104)
           0.1939 (105)  0.1580 (108)  0.2359 (109)  0.1413 (111)  0.1174 (114)
           0.1501 (115)
 CRD 18=   0.3116 (  1)  0.2882 (  4) -0.3205 (  6) -0.2621 (  7) -0.4995 (  9)
          -0.4114 ( 10) -0.1098 ( 59) -0.1754 ( 60)  0.1095 (100)  0.1073 (108)
          -0.1009 (111)  0.1003 (113)
 CRD 19=  -0.5455 (  1)  0.1180 (  2) -0.4957 (  4) -0.3006 (  6) -0.1863 (  7)
          -0.2030 (  9) -0.1377 ( 10)  0.1127 ( 12) -0.1901 ( 58) -0.1241 (101)
           0.1072 (105) -0.1054 (107) -0.1178 (111)
 CRD 20=  -0.1834 (  1)  0.2942 (  4)  0.1327 (  9) -0.1655 ( 10)  0.1104 ( 11)
           0.3624 ( 12)  0.1104 ( 14) -0.2059 ( 16) -0.1088 ( 17) -0.1677 ( 18)
           0.1178 ( 21) -0.1641 ( 36) -0.1283 ( 50) -0.1283 ( 51) -0.1283 ( 53)
          -0.1283 ( 54) -0.1316 ( 63) -0.1036 ( 68)  0.1564 (100)  0.1631 (101)
          -0.1165 (102)  0.1420 (104)  0.1353 (105) -0.1422 (113) -0.1183 (114)
          -0.1753 (115) -0.1210 (116)
 CRD 21=   0.2480 (  6) -0.2704 (  7)  0.1562 (  9) -0.1965 ( 10)  0.1129 ( 52)
           0.2030 ( 66)  0.1182 ( 67)  0.1637 ( 72) -0.1138 ( 73) -0.1125 ( 74)
          -0.1101 ( 75) -0.1183 ( 80) -0.1518 ( 82)  0.1611 ( 89)  0.1858 ( 90)
          -0.1292 ( 95) -0.1380 ( 96) -0.1451 (100) -0.1620 (101) -0.1285 (104)
          -0.1116 (105)  0.2706 (108)  0.2313 (109)  0.2459 (110)  0.2066 (111)
          -0.1279 (112) -0.1255 (113) -0.1368 (114) -0.1343 (115)
 CRD 22=   0.1109 (  1) -0.1127 (  4)  0.1134 (  6) -0.1194 (  7)  0.2860 ( 12)
           0.1014 ( 16) -0.2176 ( 17) -0.1369 ( 63) -0.1392 ( 64) -0.1714 ( 68)
          -0.1223 ( 69) -0.1117 ( 70)  0.1458 ( 76)  0.1353 ( 78) -0.1251 ( 80)
          -0.1117 ( 81) -0.1015 ( 82) -0.1005 ( 85)  0.2130 ( 91)  0.1822 ( 92)
          -0.1501 ( 94) -0.1525 ( 97)  0.1717 ( 98)  0.1206 ( 99) -0.1424 (100)
          -0.1400 (101)  0.1233 (102)  0.1513 (103) -0.1636 (104) -0.1659 (105)
           0.2025 (106)  0.1540 (107)  0.1098 (112) -0.1602 (116) -0.1110 (119)
 CRD 23=  -0.1708 (  1)  0.1856 (  4)  0.1128 (  6) -0.1679 (  7) -0.1862 (  9)
           0.2118 ( 10)  0.2508 ( 11)  0.2740 ( 12)  0.2508 ( 14)  0.2785 ( 16)
           0.3015 ( 18) -0.1372 ( 56) -0.1372 ( 57)  0.1692 ( 74) -0.1740 ( 78)
           0.1708 ( 85)  0.1062 ( 88) -0.1040 ( 93)  0.1036 ( 94) -0.1282 ( 98)
          -0.1764 (106)  0.1474 (112)  0.1317 (119)
 CRD 24=  -0.1581 (  3) -0.1071 (  8) -0.2253 ( 11)  0.2153 ( 12) -0.2253 ( 14)
           0.4631 ( 16) -0.2179 ( 18)  0.1192 ( 21)  0.1017 ( 28)  0.1380 ( 36)
          -0.1912 ( 46) -0.1912 ( 49) -0.1388 ( 61) -0.1388 ( 62) -0.1379 ( 63)
          -0.1376 ( 64)  0.1736 ( 68)  0.1007 ( 87)  0.1345 ( 88) -0.1091 (105)
           0.1107 (111)  0.1334 (116)  0.1742 (117)  0.1805 (118)
 CRD 25=   0.1512 (  1) -0.1287 (  9)  0.1316 ( 11) -0.2204 ( 12)  0.1316 ( 14)
           0.2245 ( 16) -0.1242 ( 17) -0.1173 ( 18) -0.1261 ( 20) -0.1308 ( 21)
          -0.1103 ( 23) -0.1498 ( 27)  0.1355 ( 28) -0.1434 ( 29)  0.1448 ( 33)
           0.1134 ( 39) -0.1479 ( 58)  0.1734 ( 60) -0.1002 ( 85) -0.1137 ( 88)
          -0.1177 ( 91) -0.1201 ( 95)  0.1378 ( 96)  0.1398 ( 98)  0.1073 (100)
          -0.1612 (103)  0.1411 (105) -0.2229 (107)  0.1038 (111) -0.2417 (113)
           0.2129 (114) -0.1072 (116)
 CRD 26=   0.1506 (  1) -0.1011 (  2)  0.1418 (  3) -0.2032 (  4) -0.3235 (  6)
           0.2418 (  7)  0.1410 (  8)  0.1991 (  9) -0.2098 ( 10)  0.2555 ( 11)
           0.2555 ( 14)  0.2266 ( 18)  0.1141 ( 27) -0.1207 ( 39) -0.1725 ( 42)
          -0.1444 ( 52) -0.1449 ( 66)  0.1320 ( 82)  0.1521 ( 89)  0.1252 ( 90)
           0.1196 ( 95) -0.1920 ( 97) -0.1756 (105) -0.1230 (107)  0.1206 (111)
           0.1342 (112)  0.1468 (113)
 CRD 27=  -0.1113 (  1) -0.3412 (  2)  0.1404 (  3)  0.3614 (  5) -0.2087 (  8)
           0.1262 (  9) -0.1197 ( 12)  0.1251 ( 16)  0.1669 ( 20)  0.2053 ( 23)
          -0.1712 ( 33) -0.1591 ( 39)  0.1055 ( 42)  0.1642 ( 44) -0.1088 ( 55)
          -0.1066 ( 60)  0.1061 ( 66) -0.1412 ( 72) -0.1027 ( 80) -0.1362 ( 89)
           0.1266 ( 90)  0.1353 ( 94)  0.1848 (101) -0.1883 (105)  0.2097 (108)
          -0.3004 (111)
 CRD 28=  -0.1171 (  1)  0.3069 (  3) -0.2046 (  7)  0.2238 (  8) -0.1259 (  9)
           0.1073 ( 10) -0.1245 ( 11) -0.1245 ( 14) -0.1236 ( 17) -0.2099 ( 18)
           0.1373 ( 29) -0.1236 ( 33) -0.1877 ( 44)  0.1312 ( 46)  0.1312 ( 49)
          -0.1356 ( 55)  0.2381 ( 59)  0.1396 ( 72) -0.1144 ( 80) -0.1134 ( 88)
          -0.1400 ( 90)  0.1788 ( 94) -0.1170 ( 96)  0.1266 ( 98)  0.1760 (101)
          -0.2036 (105) -0.1575 (108)  0.1890 (111) -0.1013 (114) -0.1810 (115)
 CRD 29=   0.2051 (  3) -0.1306 ( 16) -0.1595 ( 20)  0.1631 ( 21) -0.1339 ( 23)
          -0.1052 ( 27)  0.1123 ( 28) -0.1503 ( 29)  0.1761 ( 30)  0.1247 ( 33)
          -0.1360 ( 36)  0.1367 ( 42) -0.1035 ( 46) -0.1035 ( 49) -0.2006 ( 52)
          -0.1943 ( 55)  0.1132 ( 56)  0.1132 ( 57) -0.1641 ( 80)  0.1622 ( 82)
           0.1362 ( 88)  0.1135 ( 89) -0.1210 ( 90)  0.1477 ( 93)  0.1254 ( 99)
           0.1853 (100)  0.1554 (102) -0.2306 (104) -0.1410 (105) -0.1005 (106)
          -0.1980 (109)  0.2079 (110) -0.1552 (112)  0.1470 (115)
 CRD 30=   0.1015 (  1) -0.1502 (  2)  0.1290 (  4) -0.2632 (  5)  0.1076 (  6)
           0.2384 (  9) -0.2791 ( 13) -0.2791 ( 15) -0.1126 ( 17) -0.1154 ( 18)
           0.1261 ( 27)  0.1044 ( 30)  0.1136 ( 39) -0.1923 ( 58) -0.2406 ( 60)
          -0.1371 ( 72) -0.1222 ( 91)  0.1212 ( 92)  0.1046 ( 93)  0.1541 ( 95)
           0.1237 ( 98)  0.1236 ( 99)  0.1171 (102) -0.1198 (103)  0.1335 (105)
          -0.1197 (106) -0.1263 (107) -0.1838 (109) -0.1681 (111)  0.1082 (112)
           0.1935 (113) -0.1441 (114)
 CRD 31=  -0.1953 (  1)  0.2250 (  4)  0.1068 (  8)  0.1220 (  9) -0.2923 ( 10)
           0.1195 ( 27) -0.1233 ( 28) -0.1227 ( 29)  0.1033 ( 39) -0.1400 ( 42)
           0.1242 ( 52)  0.1390 ( 60) -0.2326 ( 66) -0.1175 ( 74) -0.1212 ( 75)
          -0.1030 ( 77) -0.1040 ( 78) -0.1071 ( 79) -0.1488 ( 80) -0.2016 ( 82)
           0.1259 ( 85)  0.1236 ( 91)  0.1261 ( 92)  0.1912 ( 96) -0.1168 (100)
          -0.1443 (101) -0.2376 (108) -0.1938 (110)  0.1352 (114)  0.1314 (115)
           0.1342 (116)  0.1091 (119)
 CRD 32=  -0.1784 (  2)  0.1650 (  3) -0.2430 (  5)  0.2458 (  6)  0.2162 ( 25)
           0.1179 ( 29)  0.1069 ( 30) -0.1086 ( 32) -0.1044 ( 55) -0.2697 ( 59)
           0.1542 ( 72) -0.1855 ( 80) -0.1874 ( 89)  0.1064 ( 90) -0.1277 ( 94)
           0.2080 ( 97)  0.3321 (100) -0.2689 (104)  0.2144 (109) -0.2678 (110)
 CRD 33=   0.1525 (  2) -0.2344 (  7)  0.2385 ( 11)  0.2385 ( 14)  0.1609 ( 17)
           0.2145 ( 18) -0.1482 ( 20)  0.1065 ( 27) -0.1012 ( 30)  0.1076 ( 36)
           0.1168 ( 39)  0.1079 ( 59) -0.1214 ( 63) -0.1098 ( 64)  0.1022 ( 66)
           0.1256 ( 68) -0.1639 ( 74)  0.2203 ( 78) -0.1720 ( 85) -0.1742 ( 90)
           0.1353 ( 94)  0.1827 (101)  0.1339 (104)  0.1753 (106) -0.1629 (108)
          -0.2263 (109) -0.1335 (114) -0.1140 (119)
 CRD 34=   0.1760 (  1) -0.2500 (  2) -0.1168 (  3)  0.1789 (  5)  0.1842 (  8)
          -0.1516 (  9)  0.1024 ( 18)  0.1201 ( 21)  0.1370 ( 23)  0.1118 ( 28)
          -0.1486 ( 31)  0.1233 ( 32) -0.1441 ( 33) -0.1004 ( 36)  0.1131 ( 56)
           0.1131 ( 57) -0.1881 ( 58)  0.1689 ( 60)  0.1690 ( 72) -0.1011 ( 82)
          -0.1480 ( 89) -0.1401 ( 91)  0.1112 ( 92)  0.1405 ( 93) -0.1016 ( 95)
           0.1319 ( 98)  0.1373 ( 99)  0.1418 (102) -0.1140 (103)  0.2044 (104)
          -0.1193 (106) -0.1094 (107)  0.1552 (109) -0.1979 (110) -0.2158 (112)
           0.1407 (115)
 CRD 35=   0.1188 (  2)  0.1214 (  3) -0.1060 (  4)  0.1236 ( 12) -0.3671 ( 13)
          -0.3671 ( 15)  0.1131 ( 16) -0.1907 ( 21)  0.1022 ( 22)  0.1022 ( 24)
          -0.1160 ( 31) -0.1459 ( 32) -0.1319 ( 36)  0.1531 ( 58) -0.1034 ( 74)
           0.1073 ( 75) -0.1347 ( 86) -0.1533 ( 92)  0.1050 ( 93) -0.1124 ( 95)
          -0.1033 ( 98) -0.1803 ( 99)  0.1184 (100) -0.1956 (102)  0.1303 (106)
          -0.1907 (112)  0.1763 (115)
 CRD 36=   0.1444 (  3) -0.2276 (  8)  0.1966 ( 12) -0.1386 ( 16) -0.1789 ( 22)
          -0.1789 ( 24)  0.1290 ( 34)  0.1563 ( 35)  0.1290 ( 37)  0.1563 ( 38)
           0.1849 ( 46)  0.1849 ( 49) -0.1814 ( 56) -0.1814 ( 57) -0.1270 ( 61)
          -0.1270 ( 62)  0.1278 ( 68) -0.2019 ( 71) -0.1182 ( 73)  0.1675 ( 83)
           0.1675 ( 84) -0.1990 ( 86) -0.2082 ( 88) -0.2424 ( 93)  0.1009 (114)
           0.1347 (115)  0.1043 (116)  0.2128 (117)  0.2129 (118) -0.1086 (119)
 CRD 37=  -0.1004 (  1)  0.1450 (  4)  0.1278 (  7)  0.1255 ( 10)  0.1820 ( 11)
           0.1820 ( 14)  0.1054 ( 18) -0.1083 ( 27) -0.1045 ( 28)  0.1084 ( 30)
           0.1124 ( 42) -0.1204 ( 61) -0.1204 ( 62) -0.2226 ( 67)  0.1962 ( 68)
           0.1348 ( 73)  0.1398 ( 75) -0.1274 ( 76) -0.1309 ( 77) -0.1435 ( 79)
           0.2136 ( 81) -0.1410 ( 85)  0.2160 ( 98) -0.1221 (100) -0.1663 (101)
          -0.1221 (104)  0.1668 (106)  0.1653 (108)  0.1041 (109)  0.1171 (110)
          -0.1761 (112) -0.1976 (114)  0.1339 (117)  0.1294 (118)
 CRD 38=  -0.1640 ( 11) -0.1640 ( 14)  0.1627 ( 17)  0.1456 ( 18) -0.1099 ( 40)
          -0.1022 ( 41) -0.1099 ( 45) -0.1022 ( 47)  0.1222 ( 50)  0.1222 ( 51)
           0.1222 ( 53)  0.1222 ( 54) -0.1077 ( 63) -0.1031 ( 64)  0.1302 ( 69)
           0.2273 ( 70) -0.1529 ( 73) -0.2066 ( 76)  0.1455 ( 78) -0.1221 ( 85)
          -0.1353 ( 91) -0.1142 ( 92) -0.1207 ( 95)  0.2379 ( 98)  0.2167 (106)
           0.1083 (112)  0.1318 (114) -0.3618 (116) -0.1425 (117) -0.1460 (118)
          -0.2193 (119)
 CRD 39=  -0.9773 ( 87)

 THE DETERMINANT OF THE G MATRIX IS 10**(   -12)


                     --------------------
                     INTERNAL COORDINATES
                     --------------------

                 - - ATOMS - -         COORDINATE      COORDINATE
 NO.   TYPE    I  J  K  L  M  N        (BOHR,RAD)       (ANG,DEG)
 ----------------------------------------------------------------
   1 STRETCH   1  6                     2.0619368       1.0911300
   2 STRETCH   1  2                     2.9353795       1.5533360
   3 STRETCH   1  5                     2.8565751       1.5116346
   4 STRETCH   1  7                     2.0665571       1.0935750
   5 STRETCH   2  3                     2.9288818       1.5498976
   6 STRETCH   2  8                     2.0522337       1.0859954
   7 STRETCH   2  9                     2.0545137       1.0872019
   8 STRETCH   3  4                     2.9290204       1.5499710
   9 STRETCH   3 11                     2.0550221       1.0874709
  10 STRETCH   3 10                     2.0566075       1.0883099
  11 STRETCH   4 14                     3.4204040       1.8100000
  12 STRETCH   4 12                     2.0575155       1.0887904
  13 STRETCH   4  5                     2.7225068       1.4406886
  14 STRETCH   4 14                     3.4204040       1.8100000
  15 STRETCH   4  5                     2.7225068       1.4406886
  16 STRETCH   5 13                     2.0529613       1.0863804
  17 STRETCH   5 15                    10.1789939       5.3864920
  18 STRETCH   5 14                     4.5185567       2.3911174
  19 BEND      1  5 15                  1.9348400     110.8581646
  20 BEND      1  2  8                  1.9518574     111.8331913
  21 BEND      1  5 13                  2.1686799     124.2562045
  22 BEND      1  5  4                  1.9555635     112.0455371
  23 BEND      1  2  9                  1.9181454     109.9016343
  24 BEND      1  5  4                  1.9555635     112.0455371
  25 BEND      1  2  3                  1.8369903     105.2517889
  26 BEND      1  5 14                  1.9361202     110.9315171
  27 BEND      2  3 10                  1.9354403     110.8925589
  28 BEND      2  1  7                  1.9453976     111.4630711
  29 BEND      2  3 11                  1.9673178     112.7190077
  30 BEND      2  1  6                  1.9702226     112.8854404
  31 BEND      2  3  4                  1.8166214     104.0847364
  32 BEND      2  1  5                  1.8216798     104.3745628
  33 BEND      3  2  8                  1.9509538     111.7814174
  34 BEND      3  4 14                  1.9789954     113.3880845
  35 BEND      3  4  5                  1.8458905     105.7617335
  36 BEND      3  4 12                  1.9977842     114.4646043
  37 BEND      3  4 14                  1.9789954     113.3880845
  38 BEND      3  4  5                  1.8458905     105.7617335
  39 BEND      3  2  9                  1.9203101     110.0256656
  40 BEND      4  5 15                  0.9014749      51.6507052
  41 BEND      4  5 14                  0.8558133      49.0344921
  42 BEND      4  3 11                  1.9585353     112.2158088
  43 BEND      4 14  5                  0.6447934      36.9439409
  44 BEND      4  3 10                  1.8902678     108.3043670
  45 BEND      4  5 15                  0.9014749      51.6507052
  46 BEND      4  5 13                  2.1589128     123.6965915
  47 BEND      4  5 14                  0.8558133      49.0344921
  48 BEND      4 14  5                  0.6447934      36.9439409
  49 BEND      4  5 13                  2.1589128     123.6965915
  50 BEND      5  4 14                  1.6409859      94.0215671
  51 BEND      5  4 14                  1.6409859      94.0215671
  52 BEND      5  1  6                  1.9699282     112.8685745
  53 BEND      5  4 14                  1.6409859      94.0215671
  54 BEND      5  4 14                  1.6409859      94.0215671
  55 BEND      5  1  7                  1.8909632     108.3442096
  56 BEND      5  4 12                  2.0583131     117.9326557
  57 BEND      5  4 12                  2.0583131     117.9326557
  58 BEND      6  1  7                  1.8657699     106.9007405
  59 BEND      8  2  9                  1.8856620     108.0404766
  60 BEND     10  3 11                  1.8940320     108.5200413
  61 BEND     12  4 14                  1.9139589     109.6617696
  62 BEND     12  4 14                  1.9139589     109.6617696
  63 BEND     13  5 14                  1.8328231     105.0130288
  64 BEND     13  5 15                  1.8014240     103.2139910
  65 BEND     14  5 15                  0.0464050       2.6588079
  66 TORSION   1  2  3 11               2.6211743     150.1822270
  67 TORSION   1  2  3  4               0.4945386      28.3349726
  68 TORSION   1  5  4 12               2.5496723     146.0854638
  69 TORSION   1  5  4 14              -1.7303171     -99.1398693
  70 TORSION   1  5  4  3               0.2886610      16.5390569
  71 TORSION   1  5 14  4               1.7722595     101.5429885
  72 TORSION   1  2  3 10              -1.5344850     -87.9195131
  73 TORSION   2  3  4  5              -0.4818767     -27.6095037
  74 TORSION   2  3  4 12              -2.7777114    -159.1511385
  75 TORSION   2  3  4 14               1.2917742      74.0132098
  76 TORSION   2  1  5  4               0.0245189       1.4048298
  77 TORSION   2  1  5 15              -0.9494213     -54.3978307
  78 TORSION   2  1  5 13              -3.1091246    -178.1397201
  79 TORSION   2  1  5 14              -0.8997680     -51.5529080
  80 TORSION   3  2  1  7               1.7106416      98.0125452
  81 TORSION   3  2  1  5              -0.3267716     -18.7226314
  82 TORSION   3  2  1  6              -2.4723320    -141.6541907
  83 TORSION   3  4  5 14               2.0189781     115.6789262
  84 TORSION   3  4  5 15               2.0297270     116.2947932
  85 TORSION   3  4  5 13              -2.8608286    -163.9134052
  86 TORSION   3  4 14  5              -1.9040198    -109.0922959
  87 TORSION   4 14  5 15              -2.9588594    -169.5301532
  88 TORSION   4 14  5 13              -2.1268489    -121.8594656
  89 TORSION   4  3  2  9              -1.5711298     -90.0191061
  90 TORSION   4  3  2  8               2.6169638     149.9409818
  91 TORSION   4  5  1  7              -2.0502710    -117.4718753
  92 TORSION   4  5  1  6               2.1702711     124.3473739
  93 TORSION   5 14  4 12               2.1220835     121.5864279
  94 TORSION   5  1  2  8              -2.4486089    -140.2949534
  95 TORSION   5  4  3 10               1.5785086      90.4418831
  96 TORSION   5  4  3 11              -2.6143218    -149.7896065
  97 TORSION   5  1  2  9               1.7403514      99.7147890
  98 TORSION   6  1  5 13              -0.9633725     -55.1971759
  99 TORSION   6  1  5 15               1.1963309      68.5447135
 100 TORSION   6  1  2  9              -0.4052091     -23.2167704
 101 TORSION   6  1  2  8               1.6890160      96.7734873
 102 TORSION   6  1  5 14               1.2459842      71.3896362
 103 TORSION   7  1  5 15              -3.0242112    -173.2745357
 104 TORSION   7  1  2  8              -0.4111957     -23.5597768
 105 TORSION   7  1  2  9              -2.5054207    -143.5500344
 106 TORSION   7  1  5 13               1.0992708      62.9835748
 107 TORSION   7  1  5 14              -2.9745579    -170.4296130
 108 TORSION   8  2  3 11              -1.5395857     -88.2117639
 109 TORSION   8  2  3 10               0.5879403      33.6864960
 110 TORSION   9  2  3 11               0.5555060      31.8281482
 111 TORSION   9  2  3 10               2.6830320     153.7264081
 112 TORSION  10  3  4 12              -0.7173260     -41.0997517
 113 TORSION  10  3  4 14              -2.9310257    -167.9354034
 114 TORSION  11  3  4 12               1.3730289      78.6687587
 115 TORSION  11  3  4 14              -0.8406709     -48.1668929
 116 TORSION  12  4  5 13              -0.5998173     -34.3669982
 117 TORSION  12  4  5 14              -2.0031958    -114.7746669
 118 TORSION  12  4  5 15              -1.9924469    -114.1587999
 119 TORSION  13  5  4 14               1.4033786      80.4076687
 120 TORSION  14  4  5 15               0.0107489       0.6158670

     ------------------------------------------
     THE POINT GROUP IS C1 , NAXIS= 0, ORDER= 1
     ------------------------------------------

     DIMENSIONS OF THE SYMMETRY SUBSPACES ARE
 A   =   71

 ..... DONE SETTING UP THE RUN .....
 STEP CPU TIME =     0.07 TOTAL CPU TIME =          0.1 (      0.0 MIN)
 TOTAL WALL CLOCK TIME=          0.1 SECONDS, CPU UTILIZATION IS    87.50%


          -----------------------------
          STATIONARY POINT LOCATION RUN
          -----------------------------

 OBTAINING INITIAL HESSIAN, HESS=CALC    

     ---------------------------------
     HESSIAN MATRIX CONTROL PARAMETERS
     ---------------------------------
     METHOD=ANALYTIC   NVIB  =       2   VIBSIZ= 0.01000
     RDHESS=       F   PURIFY=       F   PRTIFC=       F
     VIBANL=       F   DECOMP=       F   PROJCT=       F
     SCLFAC= 1.00000   PRTSCN=       F   NPRT  =       0
     PULCOR=       F   NPUN  =       0   REDOVB=       T
     HSSTYP=GENERAL 
 Old integral subroutine is used

     ------------------------------
     CPHF RESPONSE SOLUTION OPTIONS
     ------------------------------
     POLAR  =       F     NWORD  =       0
     CPHF   =AO      

          ********************
          1 ELECTRON INTEGRALS
          ********************
 ...... END OF ONE-ELECTRON INTEGRALS ......
 STEP CPU TIME =     0.01 TOTAL CPU TIME =          0.1 (      0.0 MIN)
 TOTAL WALL CLOCK TIME=          0.1 SECONDS, CPU UTILIZATION IS    80.00%

          -------------
          GUESS OPTIONS
          -------------
          GUESS =HUCKEL            NORB  =       0          NORDER=       0
          MIX   =       F          PRTMO =       F          PUNMO =       F
          TOLZ  = 1.0E-08          TOLE  = 1.0E-05
          SYMDEN=       F          PURIFY=       F

 INITIAL GUESS ORBITALS GENERATED BY HUCKEL   ROUTINE.
 HUCKEL GUESS REQUIRES     66792 WORDS.

 SYMMETRIES FOR INITIAL GUESS ORBITALS FOLLOW.   BOTH SET(S).
    54 ORBITALS ARE OCCUPIED (   33 CORE ORBITALS).
    34=A       35=A       36=A       37=A       38=A       39=A       40=A   
    41=A       42=A       43=A       44=A       45=A       46=A       47=A   
    48=A       49=A       50=A       51=A       52=A       53=A       54=A   
    55=A       56=A       57=A       58=A       59=A       60=A       61=A   
    62=A       63=A       64=A   
 ...... END OF INITIAL ORBITAL SELECTION ......
 STEP CPU TIME =     0.02 TOTAL CPU TIME =          0.1 (      0.0 MIN)
 TOTAL WALL CLOCK TIME=          0.1 SECONDS, CPU UTILIZATION IS    83.33%

                    ----------------------
                    AO INTEGRAL TECHNOLOGY
                    ----------------------
     S,P,L SHELL ROTATED AXIS INTEGRALS, REPROGRAMMED BY
        KAZUYA ISHIMURA (IMS) AND JOSE SIERRA (SYNSTAR).
     S,P,D,L SHELL ROTATED AXIS INTEGRALS PROGRAMMED BY
        KAZUYA ISHIMURA (INSTITUTE FOR MOLECULAR SCIENCE).
     S,P,D,F,G SHELL TO TOTAL QUARTET ANGULAR MOMENTUM SUM 5,
        ERIC PROGRAM BY GRAHAM FLETCHER (ELORET AND NASA ADVANCED
        SUPERCOMPUTING DIVISION, AMES RESEARCH CENTER).
     S,P,D,F,G,L SHELL GENERAL RYS QUADRATURE PROGRAMMED BY
        MICHEL DUPUIS (PACIFIC NORTHWEST NATIONAL LABORATORY).

          --------------------
          2 ELECTRON INTEGRALS
          --------------------

 THE -PK- OPTION IS OFF, THE INTEGRALS ARE NOT IN SUPERMATRIX FORM.
 STORING   15000 INTEGRALS/RECORD ON DISK, USING 12 BYTES/INTEGRAL.
 TWO ELECTRON INTEGRAL EVALUATION REQUIRES   90802 WORDS OF MEMORY.
 SCHWARZ INEQUALITY OVERHEAD:      2217 INTEGRALS, T=        0.01
 II,JST,KST,LST =  1  1  1  1 NREC =         1 INTLOC =    1
 II,JST,KST,LST =  2  1  1  1 NREC =         1 INTLOC =    2
 II,JST,KST,LST =  3  1  1  1 NREC =         1 INTLOC =   34
 II,JST,KST,LST =  4  1  1  1 NREC =         1 INTLOC =  138
 II,JST,KST,LST =  5  1  1  1 NREC =         1 INTLOC = 1354
 II,JST,KST,LST =  6  1  1  1 NREC =         1 INTLOC = 1923
 II,JST,KST,LST =  7  1  1  1 NREC =         1 INTLOC = 6789
 II,JST,KST,LST =  8  1  1  1 NREC =         1 INTLOC = 8468
 II,JST,KST,LST =  9  1  1  1 NREC =         2 INTLOC = 5872
 II,JST,KST,LST = 10  1  1  1 NREC =         2 INTLOC = 9808
 II,JST,KST,LST = 11  1  1  1 NREC =         4 INTLOC = 5258
 II,JST,KST,LST = 12  1  1  1 NREC =         4 INTLOC =13858
 II,JST,KST,LST = 13  1  1  1 NREC =         5 INTLOC = 8511
 II,JST,KST,LST = 14  1  1  1 NREC =         6 INTLOC = 4289
 II,JST,KST,LST = 15  1  1  1 NREC =         7 INTLOC = 1280
 II,JST,KST,LST = 16  1  1  1 NREC =         7 INTLOC =14566
 II,JST,KST,LST = 17  1  1  1 NREC =         8 INTLOC =14238
 II,JST,KST,LST = 18  1  1  1 NREC =        10 INTLOC =  377
 II,JST,KST,LST = 19  1  1  1 NREC =        11 INTLOC = 3089
 II,JST,KST,LST = 20  1  1  1 NREC =        12 INTLOC = 2897
 II,JST,KST,LST = 21  1  1  1 NREC =        17 INTLOC =  200
 II,JST,KST,LST = 22  1  1  1 NREC =        24 INTLOC =  368
 II,JST,KST,LST = 23  1  1  1 NREC =        38 INTLOC = 8551
 II,JST,KST,LST = 24  1  1  1 NREC =        53 INTLOC = 9598
 II,JST,KST,LST = 25  1  1  1 NREC =        53 INTLOC =14618
 II,JST,KST,LST = 26  1  1  1 NREC =        56 INTLOC = 3673
 II,JST,KST,LST = 27  1  1  1 NREC =        60 INTLOC = 7987
 II,JST,KST,LST = 28  1  1  1 NREC =        69 INTLOC =11513
 SCHWARZ INEQUALITY TEST SKIPPED       40275 INTEGRAL BLOCKS.
 TOTAL NUMBER OF NONZERO TWO-ELECTRON INTEGRALS =             1354493
         91 INTEGRAL RECORDS WERE STORED ON DISK FILE  8.
  ...... END OF TWO-ELECTRON INTEGRALS .....
 STEP CPU TIME =     0.21 TOTAL CPU TIME =          0.3 (      0.0 MIN)
 TOTAL WALL CLOCK TIME=          0.3 SECONDS, CPU UTILIZATION IS    91.18%

          --------------------------
                 RHF SCF CALCULATION
          --------------------------

     NUCLEAR ENERGY =       774.9664539827
     MAXIT =   30     NPUNCH=    2
     EXTRAP=T  DAMP=F  SHIFT=F  RSTRCT=F  DIIS=F  DEM=F  SOSCF=T
     DENSITY MATRIX CONV=  1.00E-05
     SOSCF WILL OPTIMIZE     918 ORBITAL ROTATIONS, SOGTOL=   0.250
     MEMORY REQUIRED FOR RHF ITERS=     69953 WORDS.

 ITER EX DEM     TOTAL ENERGY        E CHANGE  DENSITY CHANGE     ORB. GRAD
   1  0  0    -5282.5305481301 -5282.5305481301  12.092089583   0.000000000
          ---------------START SECOND ORDER SCF---------------
   2  1  0    -5283.4196500442    -0.8891019141   0.446244632   0.070770735
   3  2  0    -5283.3974945861     0.0221554581   0.178236827   0.060445874
   4  3  0    -5283.4557610331    -0.0582664470   0.192815775   0.023410313
   5  4  0    -5283.4572541531    -0.0014931200   0.115388280   0.031029731
   6  5  0    -5283.4625818840    -0.0053277309   0.016008808   0.003668348
   7  6  0    -5283.4628369523    -0.0002550683   0.012844061   0.001953931
   8  7  0    -5283.4628918848    -0.0000549325   0.002535397   0.000562953
   9  8  0    -5283.4628973502    -0.0000054654   0.001053868   0.000175257
  10  9  0    -5283.4628979921    -0.0000006420   0.000200582   0.000022008
  11 10  0    -5283.4628980269    -0.0000000348   0.000101480   0.000010350
  12 11  0    -5283.4628980310    -0.0000000041   0.000029117   0.000002008
  13 12  0    -5283.4628980313    -0.0000000002   0.000007004   0.000000672
  14 13  0    -5283.4628980313    -0.0000000000   0.000001125   0.000000283

          -----------------
          DENSITY CONVERGED
          -----------------
     TIME TO FORM FOCK OPERATORS=       0.3 SECONDS (       0.0 SEC/ITER)
     TIME TO SOLVE SCF EQUATIONS=       0.0 SECONDS (       0.0 SEC/ITER)

 FINAL RHF ENERGY IS    -5283.4628980313 AFTER  14 ITERATIONS

          ------------
          EIGENVECTORS
          ------------

                      1          2          3          4          5
                 -484.9252  -484.5472   -63.8330   -63.4650   -57.9641
                     A          A          A          A          A   
    1  C  1  S   -0.000000  -0.000000  -0.000007  -0.000000  -0.000000
    2  C  1  S    0.000001   0.000000   0.000109   0.000004   0.000007
    3  C  1  X    0.000000   0.000000   0.000039   0.000003   0.000004
    4  C  1  Y    0.000000  -0.000000   0.000015  -0.000000   0.000000
    5  C  1  Z    0.000000   0.000000   0.000021   0.000002   0.000002
    6  C  2  S   -0.000000   0.000000  -0.000005   0.000000   0.000000
    7  C  2  S    0.000001  -0.000000   0.000119  -0.000002   0.000003
    8  C  2  X   -0.000001  -0.000000  -0.000109  -0.000001  -0.000006
    9  C  2  Y   -0.000000   0.000000  -0.000015   0.000002   0.000002
   10  C  2  Z    0.000000  -0.000000   0.000016  -0.000001  -0.000002
   11  C  3  S    0.000000  -0.000000   0.000016  -0.000000   0.000001
   12  C  3  S    0.000001   0.000000   0.000144   0.000001   0.000012
   13  C  3  X   -0.000000   0.000000  -0.000051   0.000002   0.000002
   14  C  3  Y   -0.000000  -0.000000  -0.000042  -0.000001  -0.000004
   15  C  3  Z   -0.000001   0.000000  -0.000147   0.000009  -0.000001
   16  C  4  S    0.000003   0.000000   0.000451   0.000017   0.000049
   17  C  4  S   -0.000020  -0.000001  -0.003562  -0.000143  -0.000427
   18  C  4  X   -0.000009  -0.000000  -0.001477  -0.000055  -0.000169
   19  C  4  Y    0.000009   0.000000   0.001603   0.000011   0.000150
   20  C  4  Z   -0.000013  -0.000001  -0.002389  -0.000121  -0.000293
   21  C  5  S    0.000001   0.000000   0.000182   0.000007   0.000015
   22  C  5  S   -0.000004  -0.000000  -0.000667  -0.000019  -0.000045
   23  C  5  X   -0.000002  -0.000000  -0.000398  -0.000020  -0.000034
   24  C  5  Y    0.000003   0.000000   0.000543   0.000016   0.000036
   25  C  5  Z   -0.000004  -0.000000  -0.000641  -0.000035  -0.000058
   26  H  6  S   -0.000000  -0.000000  -0.000068  -0.000002  -0.000003
   27  H  7  S   -0.000000  -0.000000  -0.000051  -0.000001  -0.000004
   28  H  8  S   -0.000000  -0.000000  -0.000053  -0.000000  -0.000003
   29  H  9  S   -0.000002   0.000000  -0.000263   0.000001  -0.000009
   30  H 10  S   -0.000001  -0.000000  -0.000134  -0.000000  -0.000009
   31  H 11  S   -0.000001   0.000000  -0.000233   0.000004  -0.000009
   32  H 12  S   -0.000000   0.000000  -0.000073   0.000005   0.000006
   33  H 13  S    0.000000   0.000000  -0.000015   0.000003   0.000004
   34  BR14  S    0.994693   0.000000   0.419597   0.000558  -0.000626
   35  BR14  S    0.014822  -0.000000  -1.059837  -0.001391   0.001595
   36  BR14  X   -0.000003  -0.000000   0.000614  -0.000021   0.450993
   37  BR14  Y    0.000003   0.000000  -0.000578   0.000041  -0.574658
   38  BR14  Z   -0.000005  -0.000000   0.001008  -0.000021   0.672409
   39  BR14  S   -0.073394  -0.000012   2.443272   0.002292  -0.003413
   40  BR14  X    0.000002   0.000000   0.000242   0.000084   0.008496
   41  BR14  Y   -0.000002  -0.000001  -0.000232  -0.000162  -0.010819
   42  BR14  Z    0.000003   0.000001   0.000400   0.000087   0.012671
   43  BR14 XX    0.032042   0.000005  -1.127641  -0.001021   0.001560
   44  BR14 YY    0.032042   0.000005  -1.127662  -0.001025   0.001553
   45  BR14 ZZ    0.032042   0.000005  -1.127639  -0.001020   0.001523
   46  BR14 XY   -0.000000   0.000000   0.000007   0.000002   0.000034
   47  BR14 XZ    0.000001  -0.000000   0.000000  -0.000000  -0.000047
   48  BR14 YZ   -0.000000   0.000000   0.000000   0.000002   0.000053
   49  BR14  S    0.000098  -0.000003   0.019488  -0.000446   0.000203
   50  BR14  X   -0.000006  -0.000002  -0.001104  -0.000378  -0.000722
   51  BR14  Y    0.000006   0.000004   0.001053   0.000723   0.000887
   52  BR14  Z   -0.000011  -0.000002  -0.001848  -0.000401  -0.001096
   53  BR15  S   -0.000000   0.994691  -0.000511   0.419635  -0.000007
   54  BR15  S   -0.000000   0.014826   0.001308  -1.059908   0.000016
   55  BR15  X    0.000000  -0.000001   0.000018   0.000182   0.000004
   56  BR15  Y   -0.000000   0.000001  -0.000036  -0.000353  -0.000008
   57  BR15  Z    0.000000  -0.000001   0.000019   0.000177   0.000003
   58  BR15  S   -0.000011  -0.073370  -0.003930   2.441711   0.000071
   59  BR15  X   -0.000000   0.000000  -0.000070   0.000022   0.000009
   60  BR15  Y    0.000001  -0.000000   0.000138  -0.000044  -0.000019
   61  BR15  Z   -0.000000   0.000000  -0.000072   0.000022   0.000008
   62  BR15 XX    0.000005   0.032031   0.001849  -1.126908  -0.000037
   63  BR15 YY    0.000005   0.032031   0.001846  -1.126927  -0.000037
   64  BR15 ZZ    0.000005   0.032031   0.001849  -1.126908  -0.000037
   65  BR15 XY    0.000000  -0.000000   0.000002   0.000015  -0.000000
   66  BR15 XZ   -0.000000   0.000000  -0.000001  -0.000008   0.000000
   67  BR15 YZ    0.000000  -0.000000   0.000002   0.000016  -0.000000
   68  BR15  S   -0.000003   0.000088  -0.000515   0.017521   0.000067
   69  BR15  X    0.000002  -0.000000   0.000306  -0.000042  -0.000039
   70  BR15  Y   -0.000003   0.000001  -0.000603   0.000085   0.000084
   71  BR15  Z    0.000002  -0.000000   0.000313  -0.000042  -0.000035

                      6          7          8          9         10
                  -57.9618   -57.9613   -57.5955   -57.5941   -57.5941
                     A          A          A          A          A   
    1  C  1  S    0.000000  -0.000000   0.000000  -0.000000   0.000000
    2  C  1  S   -0.000008   0.000007  -0.000000   0.000000  -0.000000
    3  C  1  X   -0.000003  -0.000001  -0.000000   0.000000   0.000000
    4  C  1  Y   -0.000002   0.000005   0.000000  -0.000000  -0.000000
    5  C  1  Z   -0.000003  -0.000008  -0.000000   0.000000   0.000000
    6  C  2  S   -0.000000   0.000000  -0.000000   0.000000  -0.000000
    7  C  2  S    0.000001   0.000009   0.000000  -0.000000  -0.000000
    8  C  2  X    0.000004  -0.000015   0.000000  -0.000000   0.000000
    9  C  2  Y   -0.000002  -0.000002  -0.000000   0.000000   0.000000
   10  C  2  Z    0.000000   0.000003   0.000000   0.000000  -0.000000
   11  C  3  S   -0.000000   0.000000   0.000000   0.000000   0.000000
   12  C  3  S    0.000016   0.000024  -0.000000  -0.000000  -0.000000
   13  C  3  X    0.000003   0.000003  -0.000000  -0.000000  -0.000000
   14  C  3  Y   -0.000004   0.000018   0.000000   0.000000  -0.000000
   15  C  3  Z   -0.000012  -0.000024  -0.000001   0.000000   0.000000
   16  C  4  S    0.000014   0.000000  -0.000002  -0.000001   0.000000
   17  C  4  S   -0.000115  -0.000003   0.000016   0.000005  -0.000000
   18  C  4  X   -0.000040   0.000115   0.000006   0.000002  -0.000002
   19  C  4  Y    0.000121   0.000026  -0.000001  -0.000003  -0.000000
   20  C  4  Z   -0.000020  -0.000044   0.000014   0.000003   0.000001
   21  C  5  S   -0.000013   0.000001  -0.000001   0.000000  -0.000000
   22  C  5  S    0.000059  -0.000005   0.000002  -0.000001   0.000000
   23  C  5  X    0.000040   0.000014   0.000002  -0.000000  -0.000000
   24  C  5  Y   -0.000051  -0.000001  -0.000002   0.000001   0.000000
   25  C  5  Z    0.000065  -0.000006   0.000004  -0.000000   0.000000
   26  H  6  S    0.000006  -0.000002   0.000000  -0.000000   0.000000
   27  H  7  S    0.000004  -0.000005   0.000000  -0.000000   0.000000
   28  H  8  S    0.000001  -0.000006   0.000000  -0.000000   0.000000
   29  H  9  S    0.000004  -0.000028  -0.000000   0.000000   0.000000
   30  H 10  S   -0.000005  -0.000013   0.000000   0.000000   0.000000
   31  H 11  S   -0.000022  -0.000013  -0.000001   0.000000  -0.000000
   32  H 12  S    0.000003  -0.000004  -0.000001  -0.000000   0.000000
   33  H 13  S    0.000000   0.000009  -0.000000  -0.000000  -0.000000
   34  BR14  S   -0.000104  -0.000005  -0.000006  -0.000000  -0.000000
   35  BR14  S    0.000266   0.000013   0.000014   0.000000   0.000000
   36  BR14  X    0.069216   0.881845   0.000010   0.000001   0.000003
   37  BR14  Y    0.775419   0.233056  -0.000020   0.000001   0.000001
   38  BR14  Z    0.616261  -0.392290   0.000011   0.000004  -0.000001
   39  BR14  S   -0.000560  -0.000029   0.000066   0.000001   0.000000
   40  BR14  X    0.001299   0.016492  -0.000009  -0.000001  -0.000003
   41  BR14  Y    0.014513   0.004359   0.000018  -0.000001  -0.000001
   42  BR14  Z    0.011543  -0.007337  -0.000010  -0.000003   0.000001
   43  BR14 XX    0.000257  -0.000042  -0.000035  -0.000001   0.000000
   44  BR14 YY    0.000307   0.000028  -0.000034  -0.000001  -0.000000
   45  BR14 ZZ    0.000199   0.000054  -0.000035  -0.000000  -0.000000
   46  BR14 XY   -0.000026   0.000022  -0.000000   0.000000  -0.000000
   47  BR14 XZ   -0.000025  -0.000038   0.000000   0.000000   0.000000
   48  BR14 YZ   -0.000026  -0.000028  -0.000000  -0.000000   0.000000
   49  BR14  S    0.000037  -0.000000   0.000057  -0.000000   0.000000
   50  BR14  X   -0.000111  -0.001160   0.000044   0.000006   0.000013
   51  BR14  Y   -0.001015  -0.000307  -0.000085   0.000004   0.000003
   52  BR14  Z   -0.000851   0.000517   0.000046   0.000015  -0.000006
   53  BR15  S    0.000003  -0.000000   0.000192   0.000005  -0.000002
   54  BR15  S   -0.000006   0.000000  -0.000488  -0.000012   0.000005
   55  BR15  X   -0.000002  -0.000001  -0.411462   0.219373   0.876565
   56  BR15  Y    0.000002  -0.000000   0.795452   0.544830   0.237048
   57  BR15  Z   -0.000003   0.000001  -0.428625   0.800520  -0.401547
   58  BR15  S   -0.000024   0.000001   0.001092   0.000027  -0.000011
   59  BR15  X   -0.000004  -0.000003  -0.007746   0.004120   0.016464
   60  BR15  Y    0.000005  -0.000001   0.014976   0.010233   0.004452
   61  BR15  Z   -0.000006   0.000001  -0.008069   0.015035  -0.007542
   62  BR15 XX    0.000013  -0.000000  -0.000504  -0.000016  -0.000009
   63  BR15 YY    0.000013  -0.000000  -0.000486   0.000005   0.000013
   64  BR15 ZZ    0.000013  -0.000000  -0.000504  -0.000026   0.000012
   65  BR15 XY    0.000000   0.000000  -0.000015  -0.000001   0.000014
   66  BR15 XZ   -0.000000  -0.000000   0.000008  -0.000010  -0.000004
   67  BR15 YZ    0.000000  -0.000000  -0.000015   0.000010  -0.000010
   68  BR15  S   -0.000023   0.000001  -0.000001  -0.000000  -0.000000
   69  BR15  X    0.000017   0.000012   0.000546  -0.000287  -0.001148
   70  BR15  Y   -0.000021   0.000004  -0.001056  -0.000714  -0.000310
   71  BR15  Z    0.000025  -0.000006   0.000568  -0.001048   0.000526

                     11         12         13         14         15
                  -11.1526   -11.1363   -11.1151   -11.1046   -11.0946
                     A          A          A          A          A   
    1  C  1  S   -0.000797  -0.004665   0.991894   0.003423   0.008541
    2  C  1  S    0.000077  -0.005747   0.037441   0.000318  -0.005288
    3  C  1  X   -0.000027  -0.003738   0.000505  -0.000067   0.002236
    4  C  1  Y    0.000035   0.000812   0.000206  -0.000057   0.003481
    5  C  1  Z   -0.000038   0.001598  -0.000372   0.000157   0.000621
    6  C  2  S   -0.000712  -0.000877  -0.007479  -0.015197   0.991833
    7  C  2  S    0.000038   0.000114  -0.005779  -0.006140   0.037029
    8  C  2  X   -0.000202  -0.000146  -0.002078  -0.001966  -0.000017
    9  C  2  Y   -0.000022   0.000074  -0.003488   0.002017  -0.000079
   10  C  2  Z   -0.000126   0.000026  -0.000705   0.003039   0.000194
   11  C  3  S   -0.002679  -0.001400  -0.003500   0.991843   0.016170
   12  C  3  S   -0.005557   0.000042  -0.000002   0.037195  -0.004987
   13  C  3  X   -0.003892   0.000029  -0.000099   0.000187   0.002125
   14  C  3  Y   -0.001166  -0.000280  -0.000130   0.000228  -0.001937
   15  C  3  Z   -0.000480  -0.000051   0.000078  -0.000176  -0.003037
   16  C  4  S    0.991840  -0.004545   0.000812   0.003651   0.000857
   17  C  4  S    0.037501  -0.006234   0.000185  -0.005494   0.000030
   18  C  4  X    0.000369   0.000286  -0.000055   0.003999   0.000137
   19  C  4  Y    0.001186  -0.004113   0.000016   0.001299  -0.000026
   20  C  4  Z    0.001536  -0.001460  -0.000015   0.000570  -0.000205
   21  C  5  S    0.005276   0.992337   0.005610   0.001516   0.001023
   22  C  5  S   -0.006544   0.034541  -0.005859   0.000106   0.000119
   23  C  5  X   -0.000204  -0.000124   0.003962   0.000184   0.000088
   24  C  5  Y    0.004066  -0.001338  -0.000856   0.000017   0.000132
   25  C  5  Z    0.002204   0.000026  -0.001801   0.000047  -0.000012
   26  H  6  S    0.000009  -0.000024  -0.006920  -0.000123   0.000071
   27  H  7  S   -0.000014  -0.000111  -0.006984   0.000001   0.000030
   28  H  8  S   -0.000111  -0.000075   0.000169   0.000220  -0.006966
   29  H  9  S    0.000060   0.000009   0.000122   0.000169  -0.007006
   30  H 10  S    0.000035  -0.000022   0.000029  -0.006999  -0.000044
   31  H 11  S    0.000081  -0.000117  -0.000077  -0.006918   0.000011
   32  H 12  S   -0.006812   0.000066  -0.000051   0.000107  -0.000135
   33  H 13  S    0.000065  -0.006636   0.000044  -0.000103  -0.000108
   34  BR14  S    0.000035   0.000017  -0.000000   0.000003   0.000000
   35  BR14  S   -0.000138  -0.000042   0.000001  -0.000004   0.000000
   36  BR14  X    0.000060   0.000019   0.000001   0.000010   0.000003
   37  BR14  Y   -0.000047  -0.000057  -0.000000  -0.000000  -0.000001
   38  BR14  Z    0.000106   0.000006  -0.000001   0.000004  -0.000000
   39  BR14  S   -0.000718  -0.000249  -0.000005  -0.000037  -0.000008
   40  BR14  X   -0.000199  -0.000066  -0.000003  -0.000034  -0.000009
   41  BR14  Y    0.000156   0.000197   0.000001   0.000001   0.000004
   42  BR14  Z   -0.000351  -0.000021   0.000002  -0.000014   0.000001
   43  BR14 XX    0.000292   0.000162   0.000002   0.000030   0.000006
   44  BR14 YY    0.000298   0.000148   0.000003   0.000028   0.000005
   45  BR14 ZZ    0.000247   0.000165   0.000002   0.000031   0.000005
   46  BR14 XY    0.000026   0.000007  -0.000001  -0.000002  -0.000000
   47  BR14 XZ   -0.000048  -0.000000   0.000000   0.000003   0.000000
   48  BR14 YZ    0.000044   0.000003  -0.000000  -0.000000  -0.000000
   49  BR14  S   -0.004688  -0.000972   0.000015  -0.000033   0.000009
   50  BR14  X    0.002333   0.000416   0.000004   0.000085   0.000034
   51  BR14  Y   -0.001934  -0.001346   0.000015   0.000001  -0.000019
   52  BR14  Z    0.004047   0.000059  -0.000009  -0.000006  -0.000013
   53  BR15  S    0.000001   0.000001  -0.000000  -0.000000   0.000000
   54  BR15  S   -0.000003  -0.000002   0.000000   0.000000  -0.000000
   55  BR15  X    0.000001   0.000000   0.000000  -0.000000  -0.000000
   56  BR15  Y   -0.000004   0.000000  -0.000000   0.000000  -0.000000
   57  BR15  Z    0.000001   0.000000   0.000000  -0.000000   0.000000
   58  BR15  S   -0.000019  -0.000010   0.000000   0.000000  -0.000000
   59  BR15  X   -0.000005  -0.000001  -0.000000   0.000000   0.000000
   60  BR15  Y    0.000014   0.000001   0.000000  -0.000000   0.000000
   61  BR15  Z   -0.000002  -0.000001  -0.000000   0.000000  -0.000000
   62  BR15 XX    0.000011   0.000006  -0.000000  -0.000000   0.000000
   63  BR15 YY    0.000011   0.000006  -0.000000  -0.000000   0.000000
   64  BR15 ZZ    0.000011   0.000006  -0.000000  -0.000000   0.000000
   65  BR15 XY    0.000000   0.000000   0.000000  -0.000000   0.000000
   66  BR15 XZ   -0.000000  -0.000000  -0.000000   0.000000  -0.000000
   67  BR15 YZ    0.000000   0.000000   0.000000   0.000000   0.000000
   68  BR15  S   -0.000067  -0.000029   0.000000   0.000001  -0.000001
   69  BR15  X    0.000032   0.000012   0.000000  -0.000002   0.000000
   70  BR15  Y   -0.000092  -0.000019  -0.000001   0.000000  -0.000001
   71  BR15  Z    0.000015   0.000015   0.000000  -0.000001   0.000001

                     16         17         18         19         20
                   -9.3174    -8.9730    -7.0125    -6.9995    -6.9967
                     A          A          A          A          A   
    1  C  1  S   -0.000001  -0.000000   0.000001   0.000000  -0.000007
    2  C  1  S    0.000126   0.000004  -0.000176   0.000188  -0.000180
    3  C  1  X    0.000029   0.000002  -0.000073   0.000053   0.000050
    4  C  1  Y    0.000031   0.000000  -0.000014   0.000072  -0.000149
    5  C  1  Z    0.000017   0.000001  -0.000031   0.000043   0.000215
    6  C  2  S    0.000005   0.000000  -0.000020   0.000013  -0.000020
    7  C  2  S    0.000140  -0.000002  -0.000069  -0.000021  -0.000223
    8  C  2  X   -0.000162  -0.000002   0.000215  -0.000120   0.000414
    9  C  2  Y   -0.000013   0.000002  -0.000044   0.000052   0.000019
   10  C  2  Z    0.000009  -0.000002   0.000070  -0.000014  -0.000048
   11  C  3  S    0.000062  -0.000000  -0.000078  -0.000018  -0.000060
   12  C  3  S    0.000138   0.000002  -0.000233  -0.000314  -0.000443
   13  C  3  X   -0.000112   0.000004   0.000050   0.000015   0.000060
   14  C  3  Y    0.000001  -0.000001  -0.000025   0.000043  -0.000467
   15  C  3  Z   -0.000267   0.000011   0.000261   0.000349   0.000694
   16  C  4  S    0.000613   0.000026  -0.001146  -0.000311  -0.000007
   17  C  4  S   -0.004754  -0.000174   0.011664   0.002680   0.000075
   18  C  4  X   -0.001830  -0.000066   0.004253   0.000848  -0.002982
   19  C  4  Y    0.002021   0.000009  -0.003971  -0.003011  -0.000698
   20  C  4  Z   -0.002945  -0.000146   0.007243   0.000191   0.001144
   21  C  5  S    0.000369   0.000011  -0.000540   0.000474  -0.000013
   22  C  5  S   -0.001011  -0.000022   0.001680  -0.001838   0.000113
   23  C  5  X   -0.000576  -0.000019   0.001079  -0.001133  -0.000466
   24  C  5  Y    0.000830   0.000014  -0.001387   0.001476  -0.000003
   25  C  5  Z   -0.000871  -0.000028   0.001661  -0.001825   0.000185
   26  H  6  S   -0.000091  -0.000004   0.000070  -0.000172   0.000064
   27  H  7  S   -0.000065   0.000001   0.000103  -0.000103   0.000115
   28  H  8  S   -0.000070  -0.000000   0.000086  -0.000037   0.000156
   29  H  9  S   -0.000354   0.000002   0.000254  -0.000116   0.000776
   30  H 10  S   -0.000168  -0.000000   0.000261   0.000112   0.000322
   31  H 11  S   -0.000311   0.000005   0.000257   0.000594   0.000384
   32  H 12  S   -0.000188   0.000010   0.000028   0.000081  -0.000096
   33  H 13  S   -0.000049   0.000003  -0.000051  -0.000071  -0.000241
   34  BR14  S    0.170433   0.000092   0.002107   0.000200   0.000020
   35  BR14  S   -0.524651  -0.000276  -0.006533  -0.000624  -0.000061
   36  BR14  X    0.002197  -0.000008  -0.190420  -0.022635  -0.371272
   37  BR14  Y   -0.002222   0.000017   0.231056  -0.333911  -0.098435
   38  BR14  Z    0.003504  -0.000008  -0.290856  -0.250333   0.164873
   39  BR14  S    2.305815   0.000920   0.027427   0.002548   0.000272
   40  BR14  X   -0.005491   0.000042   0.485707   0.057752   0.947465
   41  BR14  Y    0.005555  -0.000085  -0.589372   0.852076   0.251201
   42  BR14  Z   -0.008753   0.000042   0.741881   0.638782  -0.420747
   43  BR14 XX   -0.551927  -0.000152  -0.005320  -0.000500  -0.003201
   44  BR14 YY   -0.551206  -0.000152  -0.005641   0.002563   0.000794
   45  BR14 ZZ   -0.550732  -0.000152  -0.007981  -0.003804   0.002218
   46  BR14 XY   -0.000987   0.000000   0.002246  -0.001511   0.001330
   47  BR14 XZ    0.001313   0.000000  -0.003250  -0.001476  -0.002120
   48  BR14 YZ   -0.001222  -0.000000   0.003548  -0.001362  -0.001585
   49  BR14  S    0.031572  -0.000712  -0.006642  -0.000839  -0.000006
   50  BR14  X   -0.001918  -0.000523   0.024583   0.002814   0.039792
   51  BR14  Y    0.001893   0.001006  -0.029218   0.036021   0.010563
   52  BR14  Z   -0.003141  -0.000552   0.037907   0.027819  -0.017676
   53  BR15  S   -0.000042   0.170500   0.000095  -0.000037   0.000001
   54  BR15  S    0.000135  -0.524850  -0.000281   0.000109  -0.000002
   55  BR15  X    0.000012   0.000526  -0.000232   0.000119   0.000081
   56  BR15  Y   -0.000023  -0.001020   0.000506  -0.000152   0.000027
   57  BR15  Z    0.000012   0.000509  -0.000205   0.000170  -0.000039
   58  BR15  S   -0.000880   2.306161   0.000622  -0.000242   0.000005
   59  BR15  X   -0.000047  -0.001326   0.000547  -0.000280  -0.000191
   60  BR15  Y    0.000092   0.002570  -0.001192   0.000359  -0.000064
   61  BR15  Z   -0.000048  -0.001282   0.000484  -0.000402   0.000093
   62  BR15 XX    0.000274  -0.551650  -0.000013   0.000005  -0.000000
   63  BR15 YY    0.000273  -0.550917  -0.000012   0.000005   0.000000
   64  BR15 ZZ    0.000274  -0.551625  -0.000013   0.000005   0.000000
   65  BR15 XY    0.000001  -0.000595  -0.000000   0.000000   0.000000
   66  BR15 XZ   -0.000000   0.000321  -0.000000  -0.000000  -0.000000
   67  BR15 YZ    0.000001  -0.000616   0.000000   0.000000  -0.000000
   68  BR15  S   -0.000674   0.029760  -0.001989   0.000769  -0.000017
   69  BR15  X    0.000388  -0.000159   0.001133  -0.000546  -0.000358
   70  BR15  Y   -0.000761   0.000313  -0.002467   0.000712  -0.000121
   71  BR15  Z    0.000398  -0.000155   0.001001  -0.000775   0.000175

                     21         22         23         24         25
                   -6.6646    -6.6577    -6.6576    -2.3989    -2.3947
                     A          A          A          A          A   
    1  C  1  S   -0.000001   0.000000  -0.000000  -0.000024   0.000029
    2  C  1  S    0.000009  -0.000001   0.000002   0.000070  -0.000335
    3  C  1  X    0.000006  -0.000000  -0.000000   0.000153  -0.000217
    4  C  1  Y   -0.000001  -0.000000   0.000001  -0.000164   0.000232
    5  C  1  Z    0.000003  -0.000000  -0.000002   0.000057  -0.000121
    6  C  2  S    0.000001  -0.000000   0.000000  -0.000037  -0.000001
    7  C  2  S   -0.000006   0.000001   0.000002   0.000012   0.000047
    8  C  2  X   -0.000003   0.000000  -0.000004   0.000319   0.000013
    9  C  2  Y    0.000005  -0.000000   0.000000   0.000089  -0.000037
   10  C  2  Z   -0.000004  -0.000000   0.000000   0.000025   0.000018
   11  C  3  S   -0.000001   0.000000   0.000000  -0.000036  -0.000004
   12  C  3  S    0.000003   0.000004   0.000006   0.000930   0.000903
   13  C  3  X    0.000007   0.000003   0.000002   0.000726   0.000577
   14  C  3  Y   -0.000002   0.000000   0.000008  -0.000739  -0.000521
   15  C  3  Z    0.000025  -0.000001  -0.000007   0.001595  -0.000230
   16  C  4  S    0.000051   0.000019  -0.000000   0.007092   0.001903
   17  C  4  S   -0.000387  -0.000120   0.000003  -0.029888  -0.009048
   18  C  4  X   -0.000144  -0.000046   0.000046  -0.012911  -0.003904
   19  C  4  Y    0.000007   0.000065   0.000009   0.008261   0.010734
   20  C  4  Z   -0.000330  -0.000066  -0.000016  -0.024600  -0.001899
   21  C  5  S    0.000025  -0.000003   0.000000   0.000527  -0.001151
   22  C  5  S   -0.000059   0.000016  -0.000002   0.002219   0.003293
[...]
        SYMMETRY:         A           A           A           A           A   
    REDUCED MASS:      3.46011     1.69864     1.55624     1.69985     1.09563
    IR INTENSITY:      1.46500     0.26021     0.01861     0.15156     0.35745

  1   C            X -0.10096187 -0.09043262 -0.02832312 -0.04696959  0.01076300
                   Y -0.01893885 -0.07620367  0.02212524 -0.06696011  0.00437168
                   Z  0.03283627  0.01857579  0.02385946  0.02504296 -0.00695302
  2   C            X  0.05497193 -0.00526963  0.04166429  0.02737115 -0.00109260
                   Y  0.00592860  0.03243830 -0.14582964  0.02120593  0.00444241
                   Z -0.00407735  0.01366074 -0.03588674 -0.01202838  0.00562957
  3   C            X -0.07307709  0.11258820 -0.00059306 -0.09660826  0.01069118
                   Y -0.05238963  0.00888605  0.04868468  0.00268321 -0.06781691
                   Z  0.01639358 -0.03291398  0.00071229  0.04572929 -0.04796228
  4   C            X  0.03717495 -0.05451083 -0.02296701  0.02336683  0.00037905
                   Y  0.14612994 -0.04049419 -0.04580669 -0.08141694 -0.00204365
                   Z  0.01695125  0.01523998 -0.00218106 -0.02407333  0.00199391
  5   C            X  0.08639601  0.02972328  0.02853318 -0.03955719 -0.00275494
                   Y -0.09907352  0.03475838 -0.00209041  0.08547648  0.00191586
                   Z -0.03243207 -0.02493606 -0.00927427  0.01719486  0.00397612
  6   H            X  0.08359172  0.20800702  0.06147960  0.24182217 -0.02152496
                   Y  0.11708025  0.12455660  0.16804833  0.15347669 -0.02654219
                   Z -0.03552212 -0.08802168 -0.06688928 -0.09997583  0.01068193
  7   H            X  0.16012251  0.30223563 -0.04585784  0.22189345 -0.02509953
                   Y  0.17133295  0.28156412  0.00229819  0.14000361 -0.01457492
                   Z -0.08333762 -0.11914689  0.02473108 -0.08328096  0.01143348
  8   H            X  0.05817300 -0.03711619 -0.09535739  0.05614448 -0.01058496
                   Y  0.09392532  0.18166771  0.39530559 -0.01982259 -0.05623231
                   Z -0.06521027  0.02203047  0.08339934 -0.07808570  0.09150458
  9   H            X -0.03136677  0.05606226 -0.13394886  0.04997023 -0.11201129
                   Y -0.00254365 -0.23218497  0.54145412 -0.02232908 -0.03487832
                   Z  0.00379908 -0.03983615  0.10681695 -0.02645448  0.01499083
 10   H            X  0.09832943 -0.24435553  0.06163291  0.24950793 -0.20341212
                   Y -0.01734406  0.00655193  0.05124023  0.12250001  0.50579178
                   Z -0.09446923  0.15620756 -0.02645355 -0.18729148 -0.20100127
 11   H            X  0.04833535 -0.28139203 -0.07889881  0.39587457  0.12811059
                   Y  0.00827550 -0.07473286  0.06660017  0.11314159  0.42130865
                   Z  0.02192229  0.11727246  0.08020245 -0.10894747  0.58659022
 12   H            X -0.13182228  0.01243953  0.07169477  0.08489463 -0.02000637
                   Y -0.22543527  0.12360568  0.17164772  0.13083130 -0.03478059
                   Z -0.00619394  0.03265222  0.01322964 -0.05517451 -0.00726322
 13   H            X -0.16501189  0.04845721 -0.08784644  0.17367973 -0.01047969
                   Y  0.06805064  0.07038465  0.09236730 -0.08975534 -0.00423404
                   Z  0.03676517  0.01962332  0.03495081 -0.10400638 -0.01190507
 14   BR           X -0.00234968  0.00048190  0.00013994  0.00077875  0.00007223
                   Y -0.00044443 -0.00009269 -0.00032027 -0.00093659 -0.00052032
                   Z -0.00171464  0.00064468  0.00022584  0.00113197  0.00023334
 15   BR           X  0.00012786 -0.00010203  0.00023087  0.00053204  0.00070492
                   Y  0.00050919  0.00012059 -0.00000425  0.00012510 -0.00014120
                   Z  0.00004110 -0.00035435  0.00004408  0.00047283  0.00003128

 TRANS. SAYVETZ    X -0.00000271  0.00000021 -0.00000054  0.00000007 -0.00000063
                   Y -0.00000048  0.00000041  0.00000027  0.00000015 -0.00000104
                   Z  0.00000165 -0.00000026  0.00000130 -0.00000017  0.00000004
               TOTAL  0.00000321  0.00000053  0.00000143  0.00000024  0.00000122

   ROT. SAYVETZ    X -0.00078110 -0.00031880 -0.00020948  0.00036013  0.00026669
                   Y -0.00005835  0.00027166 -0.00013549 -0.00028536  0.00030192
                   Z -0.00021268 -0.00031402  0.00020021 -0.00035599  0.00001375
               TOTAL  0.00081164  0.00052349  0.00031988  0.00058125  0.00040307

                           36          37          38          39          40
       FREQUENCY:      1794.68     1821.30     3386.37     3605.76     3634.91  
        SYMMETRY:         A           A           A           A           A   
    REDUCED MASS:      1.09602     1.11089     1.08409     1.06708     1.06853
    IR INTENSITY:      0.00658     0.05065     1.47257     0.01500     0.00115

  1   C            X  0.05045496 -0.01101888 -0.00065922 -0.04438364  0.00193566
                   Y -0.06544343  0.02555767 -0.00010563  0.05453266 -0.00466395
                   Z -0.00257967  0.00040705  0.00080110 -0.00846177  0.00371024
  2   C            X -0.01352396 -0.06043586 -0.00057323  0.00394256  0.04619504
                   Y  0.00154265 -0.02886871  0.00191092 -0.00102317  0.02225399
                   Z  0.01353344  0.05355207 -0.00000303 -0.00155491 -0.04991880
  3   C            X -0.00076319  0.00585293  0.02497483 -0.00004602 -0.00227087
                   Y -0.00516805 -0.01382107 -0.06943028 -0.00069489  0.00043745
                   Z -0.00232958 -0.00851291  0.03039458  0.00037013  0.00062871
  4   C            X  0.00038320  0.00092683 -0.00393249  0.00009012  0.00043199
                   Y  0.00537434  0.00154876 -0.00079474  0.00034409 -0.00005537
                   Z -0.00082339  0.00167887 -0.00178599  0.00053180 -0.00065417
  5   C            X -0.00005600  0.00234358  0.00183007 -0.00061473  0.00041474
                   Y -0.00644430 -0.00116301 -0.00090175 -0.00381568  0.00083927
                   Z  0.00345338 -0.00089198 -0.00012181  0.00126010 -0.00061620
  6   H            X -0.42722027  0.09190826  0.00036811  0.07004935  0.00003766
                   Y  0.32435947 -0.09716590  0.00640743 -0.35131782  0.00862543
                   Z -0.37373645  0.11160314  0.00434161 -0.46848421  0.01177106
  7   H            X -0.19577983  0.03401120  0.00166229  0.43351001 -0.03507530
                   Y  0.44903856 -0.12881972  0.00172349 -0.25554009  0.01660186
                   Z  0.41749396 -0.10092277 -0.00325681  0.57006516 -0.04284946
  8   H            X  0.02814020  0.05850550 -0.00571830 -0.04679831 -0.60977250
                   Y  0.01571700  0.14952161  0.00142855 -0.00835748 -0.12281540
                   Z -0.17079536 -0.61513880  0.00192640 -0.00965743 -0.14644002
  9   H            X  0.17403053  0.61852354 -0.00083811  0.00402293  0.10278824
                   Y  0.03665573  0.17170679  0.00330054 -0.00938715 -0.11974688
                   Z -0.00559058 -0.00854365 -0.00318031  0.03208872  0.70228970
 10   H            X -0.00524826 -0.04034165  0.07991493  0.00032660  0.00267641
                   Y  0.01206087  0.06296091  0.07767737  0.00037143  0.00610630
                   Z -0.00770996 -0.01820405  0.14623300  0.00079792  0.01093515
 11   H            X  0.00394731  0.00558209 -0.31698392 -0.00166245  0.00124109
                   Y  0.01458174  0.05422446  0.72257017  0.00400218 -0.00149468
                   Z  0.02096168  0.08829330 -0.50925809 -0.00337253  0.00169057
 12   H            X -0.00425019 -0.00812021  0.00518316  0.00393591 -0.00924495
                   Y -0.01536795 -0.00795952  0.00130276 -0.00180695  0.00254162
                   Z  0.00223080 -0.00411340  0.00004303 -0.00470154  0.01021677
 13   H            X  0.00870996 -0.01536394  0.00119268  0.01905413 -0.00732346
                   Y -0.01701986  0.00886114 -0.00548444  0.03929661 -0.01318855
                   Z  0.00134133 -0.00192034  0.01004167 -0.02453907  0.00924366
 14   BR           X -0.00021115 -0.00011067  0.00006351  0.00007364 -0.00002929
                   Y  0.00027097 -0.00019729  0.00051254 -0.00006517 -0.00000553
                   Z -0.00022577  0.00003319  0.00014184  0.00001402  0.00001029
 15   BR           X -0.00000428  0.00007829 -0.00035011  0.00000147  0.00001072
                   Y -0.00007806  0.00001935 -0.00030216  0.00000413 -0.00000230
                   Z -0.00000661 -0.00005290 -0.00008540  0.00000292  0.00000222

 TRANS. SAYVETZ    X -0.00000018 -0.00000007  0.00000136  0.00000014  0.00000026
                   Y  0.00000044  0.00000008  0.00000083 -0.00000028  0.00000031
                   Z -0.00000034 -0.00000007 -0.00000044 -0.00000021 -0.00000009
               TOTAL  0.00000058  0.00000013  0.00000166  0.00000037  0.00000041

   ROT. SAYVETZ    X -0.00001899  0.00010679  0.00031450 -0.00002153  0.00011986
                   Y -0.00017650  0.00006463 -0.00001546 -0.00008918 -0.00028770
                   Z -0.00009773 -0.00011024 -0.00018941  0.00003121 -0.00008511
               TOTAL  0.00020264  0.00016653  0.00036745  0.00009691  0.00032308

                           41          42          43          44          45
       FREQUENCY:      3685.52     3686.45     3700.53     3722.69     3750.18  
        SYMMETRY:         A           A           A           A           A   
    REDUCED MASS:      1.09468     1.09722     1.09965     1.11060     1.11157
    IR INTENSITY:      1.30889     0.16766     1.80845     0.01766     0.01595

  1   C            X  0.00477234  0.00197284 -0.00355316 -0.01865584 -0.00148953
                   Y -0.00095302 -0.00037416  0.00062106 -0.02245566 -0.00025445
                   Z  0.00144396  0.00096076 -0.00408292 -0.08654275 -0.00492194
  2   C            X -0.00030096  0.00116878  0.00023219  0.00555489 -0.06507028
                   Y  0.00002084  0.00128721 -0.00038140  0.00117700 -0.00272358
                   Z -0.00171551  0.00317103  0.00344805  0.00320329 -0.06491197
  3   C            X  0.00812741 -0.03707397 -0.01140427  0.00008589 -0.00055585
                   Y  0.00418858 -0.02036379 -0.00653620  0.00076312 -0.00126636
                   Z  0.01819999 -0.06935278 -0.01584829  0.00020131 -0.00180256
  4   C            X  0.02548125 -0.00435289  0.04794875 -0.00235061  0.00090204
                   Y -0.00688571  0.00433819 -0.01892060  0.00105851 -0.00033959
                   Z -0.02899421  0.00642169 -0.05596045  0.00240726 -0.00109256
  5   C            X -0.02874243 -0.01023808  0.01222479 -0.00236569  0.00049738
                   Y -0.05475432 -0.02065801  0.02977409 -0.00309886  0.00114866
                   Z  0.03758656  0.01356334 -0.01746019  0.00245149 -0.00067621
  6   H            X -0.00144587  0.00008445 -0.00340339 -0.09388786 -0.00371866
                   Y  0.00241638 -0.00167432  0.01393251  0.45201792  0.02295612
                   Z  0.00424684 -0.00164205  0.01832802  0.58996056  0.02937022
  7   H            X -0.02827124 -0.01377877  0.03014961  0.32486369  0.02650179
                   Y  0.01557231  0.00733533 -0.01745573 -0.19568467 -0.01992949
                   Z -0.03274307 -0.01547258  0.03750576  0.42408508  0.03534862
  8   H            X  0.00427229 -0.01209481 -0.00729674 -0.05696773  0.67313691
                   Y  0.00166287 -0.00470458 -0.00173091 -0.01038789  0.13581228
                   Z  0.00106015 -0.00321561 -0.00149298 -0.01272525  0.15605368
  9   H            X  0.00287889 -0.00600394 -0.00512924 -0.00435214  0.08446864
                   Y -0.00308058  0.00523050  0.00564704 -0.00011097 -0.10463125
                   Z  0.01426894 -0.01751488 -0.03060708 -0.01779063  0.60995601
 10   H            X -0.09177987  0.37871319  0.09453688 -0.00234764  0.01140594
                   Y -0.08022397  0.33147704  0.08339980 -0.00195656  0.01415999
                   Z -0.17873387  0.72719562  0.17767088 -0.00407838  0.02699495
 11   H            X -0.01553976  0.04909046  0.01408341  0.00063856  0.00095314
                   Y  0.03553227 -0.11774227 -0.02999326 -0.00157435 -0.00123862
                   Z -0.02502863  0.07893374  0.02065768  0.00165969 -0.00029906
 12   H            X -0.28454147  0.06194791 -0.53074938  0.02156786 -0.00783802
                   Y  0.10228662 -0.02484350  0.19246123 -0.00751890  0.00316611
                   Z  0.32894980 -0.07050919  0.61191970 -0.02504478  0.00887053
 13   H            X  0.30887926  0.11281111 -0.15007058  0.01791359 -0.00411413
                   Y  0.61639128  0.22717766 -0.30127432  0.03541003 -0.00899753
                   Z -0.42425741 -0.15674396  0.20522335 -0.02288121  0.00575624
 14   BR           X -0.00006510  0.00000191  0.00020052  0.00004897  0.00001473
                   Y -0.00000096 -0.00002372  0.00007349 -0.00001828 -0.00000459
                   Z -0.00004824 -0.00006257  0.00038790 -0.00001512  0.00002309
 15   BR           X -0.00000684  0.00008734  0.00001319 -0.00000177  0.00000668
                   Y  0.00005979  0.00007043 -0.00006385 -0.00000248 -0.00000044
                   Z  0.00000302  0.00003174  0.00001135  0.00000074  0.00000210

 TRANS. SAYVETZ    X  0.00000053 -0.00000012  0.00000003 -0.00000010 -0.00000003
                   Y  0.00000026  0.00000020  0.00000024  0.00000003 -0.00000000
                   Z  0.00000012 -0.00000008 -0.00000009 -0.00000003  0.00000007
               TOTAL  0.00000060  0.00000025  0.00000026  0.00000011  0.00000007

   ROT. SAYVETZ    X -0.00011882  0.00010244  0.00001965  0.00002854  0.00002727
                   Y  0.00002990 -0.00001477 -0.00005750  0.00006128  0.00003679
                   Z  0.00000433 -0.00003642 -0.00004571 -0.00005658  0.00001540
               TOTAL  0.00012261  0.00010972  0.00007604  0.00008816  0.00004832

 REFERENCE ON SAYVETZ CONDITIONS - A. SAYVETZ, J.CHEM.PHYS., 7, 383-389(1939).

 NOTE - THE MODES J,K ARE ORTHONORMALIZED ACCORDING TO
 SUM ON I   M(I) * (X(I,J)*X(I,K) + Y(I,J)*Y(I,K) + Z(I,J)*Z(I,K)) = DELTA(J,K)

  MODE FREQ(CM**-1)  SYMMETRY  RED. MASS  IR INTENS.
     1     131.130    A        6.188194    0.732167
     2       2.839    A        5.285856    0.005558
     3       0.215    A       14.881404    0.000000
     4       0.345    A       15.023940    0.000001
     5       0.489    A       15.109945    0.000002
     6       5.118    A        8.073121    0.169645
     7       6.034    A        9.074619    0.196476
     8     106.027    A        4.103176    0.203092
     9     171.811    A        6.026404    1.080539
    10     192.017    A        2.531206    0.349898
    11     277.476    A        3.191282    0.054531
    12     313.379    A        2.703566    0.331943
    13     523.349    A        3.678585    0.363620
    14     631.471    A        4.680580    0.552018
    15     753.636    A        2.439234    0.131095
    16     822.101    A        5.144764    0.507047
    17     948.937    A        1.558244    0.103034
    18    1026.185    A        2.443577    0.041115
    19    1034.699    A        1.444057    0.124412
    20    1058.650    A        1.908257    0.035602
    21    1073.168    A        1.705431    0.246183
    22    1135.452    A        1.410961    2.170904
    23    1176.271    A        1.200961    0.317127
    24    1211.585    A        1.255731    0.218091
    25    1241.605    A        1.510487    0.009505
    26    1310.710    A        1.663816    3.108787
    27    1378.326    A        1.225415    0.192383
    28    1456.715    A        1.335348    0.128205
    29    1469.256    A        1.183111    0.570578
    30    1508.076    A        1.335743    0.135311
    31    1550.556    A        3.460105    1.465005
    32    1590.032    A        1.698636    0.260206
    33    1629.460    A        1.556235    0.018607
    34    1637.483    A        1.699848    0.151559
    35    1753.684    A        1.095635    0.357451
    36    1794.682    A        1.096023    0.006579
    37    1821.296    A        1.110892    0.050649
    38    3386.370    A        1.084094    1.472569
    39    3605.765    A        1.067082    0.015000
    40    3634.912    A        1.068525    0.001147
    41    3685.521    A        1.094678    1.308893
    42    3686.447    A        1.097216    0.167661
    43    3700.530    A        1.099649    1.808448
    44    3722.691    A        1.110600    0.017658
    45    3750.180    A        1.111572    0.015949

     -------------------------------
     THERMOCHEMISTRY AT T=  298.15 K
     -------------------------------

 USING IDEAL GAS, RIGID ROTOR, HARMONIC NORMAL MODE APPROXIMATIONS.
 P=  1.01325E+05 PASCAL.
 ALL FREQUENCIES ARE SCALED BY   1.00000
 THE MOMENTS OF INERTIA ARE (IN AMU*BOHR**2)
            851.61459          2387.59151          2917.08123
 THE ROTATIONAL SYMMETRY NUMBER IS  1.0
 THE ROTATIONAL CONSTANTS ARE (IN GHZ)
      2.11726     0.75519     0.61811
   1 IMAGINARY FREQUENCY VIBRATION(S) IS(ARE) EXCLUDED
     FROM THE FOLLOWING THERMOCHEMICAL ANALYSIS.
      8 -     45 VIBRATIONAL MODES ARE USED IN THERMOCHEMISTRY.
 THE HARMONIC ZERO POINT ENERGY IS (SCALED BY   1.000)
        0.140724 HARTREE/MOLECULE    30885.254282 CM**-1/MOLECULE 
       88.305462 KCAL/MOL              369.470052 KJ/MOL

               Q               LN Q
 ELEC.     1.00000E+00       0.000000
 TRANS.    1.33452E+08      18.709254
 ROT.      8.71801E+05      13.678316
 VIB.      1.61199E+01       2.780056
 TOT.      1.87545E+15      35.167626

              E         H         G         CV        CP        S
           KJ/MOL    KJ/MOL    KJ/MOL   J/MOL-K   J/MOL-K   J/MOL-K
 ELEC.      0.000     0.000     0.000     0.000     0.000     0.000
 TRANS.     3.718     6.197   -46.379    12.472    20.786   176.342
 ROT.       3.718     3.718   -33.908    12.472    12.472   126.199
 VIB.     378.821   378.821   362.578    66.655    66.655    54.477
 TOTAL    386.258   388.736   282.292    91.599    99.913   357.018
 VIB. THERMAL CORRECTION E(T)-E(0) = H(T)-H(0) =      9350.668 J/MOL

              E         H         G         CV        CP        S
         KCAL/MOL  KCAL/MOL  KCAL/MOL CAL/MOL-K CAL/MOL-K CAL/MOL-K
 ELEC.      0.000     0.000     0.000     0.000     0.000     0.000
 TRANS.     0.889     1.481   -11.085     2.981     4.968    42.147
 ROT.       0.889     0.889    -8.104     2.981     2.981    30.162
 VIB.      90.540    90.540    86.658    15.931    15.931    13.020
 TOTAL     92.318    92.910    67.469    21.893    23.880    85.329
 VIB. THERMAL CORRECTION E(T)-E(0) = H(T)-H(0) =      2234.863 CAL/MOL
 ......END OF NORMAL COORDINATE ANALYSIS......
 STEP CPU TIME =     0.00 TOTAL CPU TIME =        213.6 (      3.6 MIN)
 TOTAL WALL CLOCK TIME=        214.7 SECONDS, CPU UTILIZATION IS    99.48%
               992139  WORDS OF DYNAMIC MEMORY USED
 EXECUTION OF GAMESS TERMINATED NORMALLY Sun Nov 14 16:53:03 2021
 DDI: 263640 bytes (0.3 MB / 0 MWords) used by master data server.

 ----------------------------------------
 CPU timing information for all processes
 ========================================
 0: 209.157 + 4.422 = 213.580
 ----------------------------------------
 ddikick.x: exited gracefully.
----- accounting info -----
Files used on the master node chemcompute-node-0.novalocal were:
-rw-r--r--. 1 chemcomp chemcomp     1265 Nov 14 16:49 /scratch/306483/342494.F05
-rw-rw-r--. 1 chemcomp chemcomp 20701840 Nov 14 16:52 /scratch/306483/342494.F08
-rw-rw-r--. 1 chemcomp chemcomp 85196800 Nov 14 16:53 /scratch/306483/342494.F10
-rw-rw-r--. 1 chemcomp chemcomp   920520 Nov 14 16:53 /scratch/306483/342494.F18
Sun Nov 14 16:53:06 UTC 2021
0.124u 0.099s 3:38.35 0.0%	0+0k 8+216io 0pf+0w
Finishing Up...
Looking for IR data...
Looking for Raman data...
vibramans not found
Looking for thermodynamics data...
Looking for UV-Vis data...
306483
