----- GAMESS execution script 'rungms' -----
This job is running on host chemcompute-node-0.novalocal
under operating system Linux at Sun Nov 14 16:31:54 UTC 2021
SLURM has assigned the following compute nodes to this run:
chemcompute-node-0
Available scratch disk space (Kbyte units) at beginning of the job is
Filesystem     1K-blocks     Used Available Use% Mounted on
/dev/sda1       62903276 16693440  46209836  27% /
GAMESS temporary binary files will be written to /scratch/306481
GAMESS supplementary output files will be written to /data/slurm/342492
Copying input file 342492.inp to your run's scratch directory...
The generated host list is
chemcompute-node-0.novalocal

 Distributed Data Interface kickoff program.
 Initiating 1 compute processes on 1 nodes to run the following command:
 /data/gamess-2019R1-ddi/gamess.00.x 342492 

          ******************************************************
          *         GAMESS VERSION = 30 JUN 2019 (R1)          *
          *             FROM IOWA STATE UNIVERSITY             *
          * M.W.SCHMIDT, K.K.BALDRIDGE, J.A.BOATZ, S.T.ELBERT, *
          *   M.S.GORDON, J.H.JENSEN, S.KOSEKI, N.MATSUNAGA,   *
          *          K.A.NGUYEN, S.J.SU, T.L.WINDUS,           *
          *       TOGETHER WITH M.DUPUIS, J.A.MONTGOMERY       *
          *         J.COMPUT.CHEM.  14, 1347-1363(1993)        *
          **************** 64 BIT LINUX VERSION ****************

  SINCE 1993, STUDENTS AND POSTDOCS WORKING AT IOWA STATE UNIVERSITY
  AND ALSO IN THEIR VARIOUS JOBS AFTER LEAVING ISU HAVE MADE IMPORTANT
  CONTRIBUTIONS TO THE CODE:
     IVANA ADAMOVIC, CHRISTINE AIKENS, YURI ALEXEEV, POOJA ARORA,
     ANDREY ASADCHEV, ROB BELL, PRADIPTA BANDYOPADHYAY, JONATHAN BENTZ,
     COLLEEN BERTONI, BRETT BODE, KURT BRORSEN, CALEB CARLIN, GALINA CHABAN,
     WEI CHEN, CHEOL HO CHOI, PAUL DAY, ALBERT DEFUSCO, NUWAN DESILVA,
     TIM DUDLEY, DMITRI FEDOROV, ALEX FINDLATER, GRAHAM FLETCHER, 
     MARK FREITAG, KURT GLAESEMANN, ANASTASIA GUNINA,
     DAN KEMP, GRANT MERRILL, NORIYUKI MINEZAWA, JONATHAN MULLIN,
     TAKESHI NAGATA, SEAN NEDD, HEATHER NETZLOFF, BOSILJKA NJEGIC, RYAN OLSON,
     MIKE PAK, BUU PHAM,
     SPENCER PRUITT, LUKE ROSKOP, JIM SHOEMAKER, LYUDMILA SLIPCHENKO,
     TONY SMITH, SAROM SOK LEANG, JIE SONG, TETSUYA TAKETSUGU, SIMON WEBB,
     PENG XU, SOOHAENG YOO, FEDERICO ZAHARIEV

  ADDITIONAL CODE HAS BEEN PROVIDED BY COLLABORATORS IN OTHER GROUPS:
     IOWA STATE UNIVERSITY:
          JOE IVANIC, AARON WEST, LAIMUTIS BYTAUTAS, KLAUS RUEDENBERG
     UNIVERSITY OF TOKYO: KIMIHIKO HIRAO, TAKAHITO NAKAJIMA,
          TAKAO TSUNEDA, MUNEAKI KAMIYA, SUSUMU YANAGISAWA,
          KIYOSHI YAGI, MAHITO CHIBA, SEIKEN TOKURA, NAOAKI KAWAKAMI
     UNIVERSITY OF AARHUS: FRANK JENSEN
     UNIVERSITY OF IOWA: VISVALDAS KAIRYS, HUI LI
     NATIONAL INST. OF STANDARDS AND TECHNOLOGY: WALT STEVENS, DAVID GARMER
     UNIVERSITY OF PISA: BENEDETTA MENNUCCI, JACOPO TOMASI
     UNIVERSITY OF MEMPHIS: HENRY KURTZ, PRAKASHAN KORAMBATH
     UNIVERSITY OF ALBERTA: TOBY ZENG, MARIUSZ KLOBUKOWSKI
     UNIVERSITY OF NEW ENGLAND: MARK SPACKMAN
     MIE UNIVERSITY: HIROAKI UMEDA
     NAT. INST. OF ADVANCED INDUSTRIAL SCIENCE AND TECHNOLOGY: KAZUO KITAURA
     MICHIGAN STATE UNIVERSITY:
          KAROL KOWALSKI, MARTA WLOCH, JEFFREY GOUR, JESSE LUTZ,
          WEI LI, JUN SHEN, J. EMILIANO DEUSTUA, PIOTR PIECUCH
     UNIVERSITY OF MINNESOTA:
          YINAN SHU
     UNIVERSITY OF SILESIA: MONIKA MUSIAL, STANISLAW KUCHARSKI
     FACULTES UNIVERSITAIRES NOTRE-DAME DE LA PAIX:
          OLIVIER QUINET, BENOIT CHAMPAGNE
     UNIVERSITY OF CALIFORNIA - SANTA BARBARA: BERNARD KIRTMAN
     INSTITUTE FOR MOLECULAR SCIENCE:
          KAZUYA ISHIMURA, MICHIO KATOUDA, AND SHIGERU NAGASE
     UNIVERSITY OF NOTRE DAME: ANNA POMOGAEVA, DAN CHIPMAN
     KYUSHU UNIVERSITY:
          HARUYUKI NAKANO,
          FENG LONG GU, JACEK KORCHOWIEC, MARCIN MAKOWSKI, AND YURIKO AOKI,
          HIROTOSHI MORI AND EISAKU MIYOSHI
     PENNSYLVANIA STATE UNIVERSITY:
          TZVETELIN IORDANOV, CHET SWALINA, JONATHAN SKONE,
          SHARON HAMMES-SCHIFFER
     WASEDA UNIVERSITY:
          MASATO KOBAYASHI, TOMOKO AKAMA, TSUGUKI TOUMA,
          TAKESHI YOSHIKAWA, YASUHIRO IKABATA, JUNJI SEINO,
          YUYA NAKAJIMA, HIROMI NAKAI
     NANJING UNIVERSITY: SHUHUA LI
     UNIVERSITY OF NEBRASKA:
          PEIFENG SU, DEJUN SI, NANDUN THELLAMUREGE, YALI WANG, HUI LI
     UNIVERSITY OF ZURICH: ROBERTO PEVERATI, KIM BALDRIDGE
     N. COPERNICUS UNIVERSITY AND JACKSON STATE UNIVERSITY:
          MARIA BARYSZ
     UNIVERSITY OF COPENHAGEN: Jimmy Kromann, CASPER STEINMANN
     TOKYO INSTITUTE OF TECHNOLOGY: HIROYA NAKATA
     NAGOYA UNIVERSITY: YOSHIO NISHIMOTO, STEPHAN IRLE
     MOSCOW STATE UNIVERSITY: VLADIMIR MIRONOV
     A.N.NESMEYANOV INSTITUTE OF ORGANOELEMENT COMPOUNDS OF RUSSIAN ACADEMY OF SCIENCES:
          IGOR S. GERASIMOV

 EXECUTION OF GAMESS BEGUN Sun Nov 14 16:31:54 2021

            ECHO OF THE FIRST FEW INPUT CARDS -
 INPUT CARD>!   File created by the GAMESS Input Deck Generator Plugin for Avogadro         
 INPUT CARD> $BASIS GBASIS=STO NGAUSS=3 $END                                                
 INPUT CARD> $CONTRL SCFTYP=RHF RUNTYP=OPTIMIZE NZVAR=1 mult=1  ICHARG=0 $END               
 INPUT CARD> $STATPT hssend=.t. OPTTOL=0.0005 NSTEP=50 $END                                 
 INPUT CARD> $STATPT HESS=calc ihrep=5 $END                                                 
 INPUT CARD> $FORCE nvib=2 $END                                                             
 INPUT CARD> $ZMAT DLC=.t. auto=.t. nonvdw(1)=4,14,14,15 $END                               
 INPUT CARD> $ZMAT IFZMAT(1)=1,4,14,1,14,15 fvalue(1)=1.81,3.00 $END                        
 INPUT CARD>                                                                                
 INPUT CARD> $DATA                                                                          
 INPUT CARD>Title                                                                           
 INPUT CARD>C1                                                                              
 INPUT CARD>C     6.0    -0.60124     1.38217     0.00864                                   
 INPUT CARD>C     6.0    -1.35321     0.07590    -0.17493                                   
 INPUT CARD>C     6.0    -0.34641    -1.03023     0.12697                                   
 INPUT CARD>C     6.0     1.07244    -0.35072    -0.02978                                   
 INPUT CARD>C     6.0     0.79728     0.97479    -0.30335                                   
 INPUT CARD>H     1.0    -0.66876     1.76260     1.03286                                   
 INPUT CARD>H     1.0    -0.96950     2.14679    -0.68091                                   
 INPUT CARD>H     1.0    -1.70176    -0.01478    -1.21191                                   
 INPUT CARD>H     1.0    -2.23669     0.01600     0.46878                                   
 INPUT CARD>H     1.0    -0.44625    -1.85737    -0.58474                                   
 INPUT CARD>H     1.0    -0.50561    -1.42569     1.13659                                   
 INPUT CARD>H     1.0     1.73686    -0.77139    -0.84101                                   
 INPUT CARD>H     1.0     1.48614     1.62950    -0.82480                                   
 INPUT CARD>Br    35.0     2.16391    -0.73389     1.36207                                  
 INPUT CARD>Br    35.0     3.03996    -3.55449     1.87161                                  
 INPUT CARD> $END                                                                           
    1000000 WORDS OF MEMORY AVAILABLE

     BASIS OPTIONS
     -------------
     GBASIS=STO          IGAUSS=       3      POLAR=NONE    
     NDFUNC=       0     NFFUNC=       0     DIFFSP=       F
     NPFUNC=       0      DIFFS=       F     BASNAM=        


     RUN TITLE
     ---------
 Title                                                                           

 THE POINT GROUP OF THE MOLECULE IS C1      
 THE ORDER OF THE PRINCIPAL AXIS IS     0

 ATOM      ATOMIC                      COORDINATES (BOHR)
           CHARGE         X                   Y                   Z
 C           6.0    -1.1361788529        2.6119225684        0.0163272325
 C           6.0    -2.5571961038        0.1434302025       -0.3305697670
 C           6.0    -0.6546199794       -1.9468524043        0.2399385087
 C           6.0     2.0266177383       -0.6627646984       -0.0562760399
 C           6.0     1.5066407355        1.8420859956       -0.5732483784
 H           1.0    -1.2637731515        3.3308310260        1.9518223837
 H           1.0    -1.8320893451        4.0568448532       -1.2867333223
 H           1.0    -3.2158600969       -0.0279301501       -2.2901778218
 H           1.0    -4.2267312195        0.0302356158        0.8858657485
 H           1.0    -0.8432902220       -3.5099203578       -1.1049983741
 H           1.0    -0.9554643567       -2.6941634434        2.1478436604
 H           1.0     3.2821894790       -1.4577157297       -1.5892784529
 H           1.0     2.8083973794        3.0793084970       -1.5586459947
 BR         35.0     4.0891969621       -1.3868510051        2.5739390761
 BR         35.0     5.7446914136       -6.7170121261        3.5368300559

          INTERNUCLEAR DISTANCES (ANGS.)
          ------------------------------

                1 C          2 C          3 C          4 C          5 C     

   1 C       0.0000000    1.5183867 *  2.4287063 *  2.4094789 *  1.4896827 *
   2 C       1.5183867 *  0.0000000    1.5258812 *  2.4671544 *  2.3343312 *
   3 C       2.4287063 *  1.5258812 *  0.0000000    1.5809616 *  2.3480433 *
   4 C       2.4094789 *  2.4671544 *  1.5809616 *  0.0000000    1.3811337 *
   5 C       1.4896827 *  2.3343312 *  2.3480433 *  1.3811337 *  0.0000000  
   6 H       1.0946746 *  2.1845332 *  2.9537173 *  2.9371930 *  2.1343325 *
   7 H       1.0934982 *  2.1660643 *  3.3368199    3.2910554    2.1535197 *
   8 H       2.1569321 *  1.0977420 *  2.1588682 *  3.0342170    2.8372400 *
   9 H       2.1801023 *  1.0947545 *  2.1873705 *  3.3665096    3.2742078  
  10 H       3.2970807    2.1744088 *  1.0957462 *  2.2100665 *  3.1059101  
  11 H       3.0274567    2.1663986 *  1.0959315 *  2.2374587 *  3.0875968  
  12 H       3.2903552    3.2726282    2.3117087 *  1.1298280 *  2.0545154 *
  13 H       2.2611832 *  3.3011986    3.3672347    2.1735859 *  1.0840126 *
  14 BR      3.7357111    3.9227875    2.8133603 *  1.8097990 *  2.7497070 *
  15 BR      6.4108975    6.0554108    4.5698095    4.2131415    5.5022215  

                6 H          7 H          8 H          9 H         10 H     

   1 C       1.0946746 *  1.0934982 *  2.1569321 *  2.1801023 *  3.2970807  
   2 C       2.1845332 *  2.1660643 *  1.0977420 *  1.0947545 *  2.1744088 *
   3 C       2.9537173 *  3.3368199    2.1588682 *  2.1873705 *  1.0957462 *
   4 C       2.9371930 *  3.2910554    3.0342170    3.3665096    2.2100665 *
   5 C       2.1343325 *  2.1535197 *  2.8372400 *  3.2742078    3.1059101  
   6 H       0.0000000    1.7818682 *  3.0438727    2.4139599 *  3.9711866  
   7 H       1.7818682 *  0.0000000    2.3431924 *  2.7327319 *  4.0393485  
   8 H       3.0438727    2.3431924 *  0.0000000    1.7640341 *  2.3162007 *
   9 H       2.4139599 *  2.7327319 *  1.7640341 *  0.0000000    2.7973371 *
  10 H       3.9711866    4.0393485    2.3162007 *  2.7973371 *  0.0000000  
  11 H       3.1941464    4.0349862    2.9894638 *  2.3496975 *  1.7756261 *
  12 H       3.9647827    3.9831885    3.5403578    4.2573034    2.4517333 *
  13 H       2.8481942 *  2.5136549 *  3.6077995    4.2586611    3.9937479  
  14 BR      3.7901004    4.7212650    4.6995635    4.5525358    3.4445917  
  15 BR      6.5367845    7.4226492    6.6724472    6.5237540    4.5899381  

               11 H         12 H         13 H         14 BR        15 BR    

   1 C       3.0274567    3.2903552    2.2611832 *  3.7357111    6.4108975  
   2 C       2.1663986 *  3.2726282    3.3011986    3.9227875    6.0554108  
   3 C       1.0959315 *  2.3117087 *  3.3672347    2.8133603 *  4.5698095  
   4 C       2.2374587 *  1.1298280 *  2.1735859 *  1.8097990 *  4.2131415  
   5 C       3.0875968    2.0545154 *  1.0840126 *  2.7497070 *  5.5022215  
   6 H       3.1941464    3.9647827    2.8481942 *  3.7901004    6.5367845  
   7 H       4.0349862    3.9831885    2.5136549 *  4.7212650    7.4226492  
   8 H       2.9894638 *  3.5403578    3.6077995    4.6995635    6.6724472  
   9 H       2.3496975 *  4.2573034    4.2586611    4.5525358    6.5237540  
  10 H       1.7756261 *  2.4517333 *  3.9937479    3.4445917    4.5899381  
  11 H       0.0000000    3.0606669    4.1410512    2.7669054 *  4.2003703  
  12 H       3.0606669    0.0000000    2.4140000 *  2.2444018 *  4.0990270  
  13 H       4.1410512    2.4140000 *  0.0000000    3.2904992    6.0463820  
  14 BR      2.7669054 *  2.2444018 *  3.2904992    0.0000000    2.9971451 *
  15 BR      4.2003703    4.0990270    6.0463820    2.9971451 *  0.0000000  

  * ... LESS THAN  3.000


     ATOMIC BASIS SET
     ----------------
 THE CONTRACTED PRIMITIVE FUNCTIONS HAVE BEEN UNNORMALIZED
 THE CONTRACTED BASIS FUNCTIONS ARE NOW NORMALIZED TO UNITY

  SHELL TYPE  PRIMITIVE        EXPONENT          CONTRACTION COEFFICIENT(S)

 C         

      1   S       1            71.6168373    0.154328967295
      1   S       2            13.0450963    0.535328142282
      1   S       3             3.5305122    0.444634542185

      2   L       4             2.9412494   -0.099967229187    0.155916274999
      2   L       5             0.6834831    0.399512826089    0.607683718598
      2   L       6             0.2222899    0.700115468880    0.391957393099

 C         

      3   S       7            71.6168373    0.154328967295
      3   S       8            13.0450963    0.535328142282
      3   S       9             3.5305122    0.444634542185

      4   L      10             2.9412494   -0.099967229187    0.155916274999
      4   L      11             0.6834831    0.399512826089    0.607683718598
      4   L      12             0.2222899    0.700115468880    0.391957393099

 C         

      5   S      13            71.6168373    0.154328967295
      5   S      14            13.0450963    0.535328142282
      5   S      15             3.5305122    0.444634542185

      6   L      16             2.9412494   -0.099967229187    0.155916274999
      6   L      17             0.6834831    0.399512826089    0.607683718598
      6   L      18             0.2222899    0.700115468880    0.391957393099

 C         

      7   S      19            71.6168373    0.154328967295
      7   S      20            13.0450963    0.535328142282
      7   S      21             3.5305122    0.444634542185

      8   L      22             2.9412494   -0.099967229187    0.155916274999
      8   L      23             0.6834831    0.399512826089    0.607683718598
      8   L      24             0.2222899    0.700115468880    0.391957393099

 C         

      9   S      25            71.6168373    0.154328967295
      9   S      26            13.0450963    0.535328142282
      9   S      27             3.5305122    0.444634542185

     10   L      28             2.9412494   -0.099967229187    0.155916274999
     10   L      29             0.6834831    0.399512826089    0.607683718598
     10   L      30             0.2222899    0.700115468880    0.391957393099

 H         

     11   S      31             3.4252509    0.154328967295
     11   S      32             0.6239137    0.535328142282
     11   S      33             0.1688554    0.444634542185

 H         

     12   S      34             3.4252509    0.154328967295
     12   S      35             0.6239137    0.535328142282
     12   S      36             0.1688554    0.444634542185

 H         

     13   S      37             3.4252509    0.154328967295
     13   S      38             0.6239137    0.535328142282
     13   S      39             0.1688554    0.444634542185

 H         

     14   S      40             3.4252509    0.154328967295
     14   S      41             0.6239137    0.535328142282
     14   S      42             0.1688554    0.444634542185

 H         

     15   S      43             3.4252509    0.154328967295
     15   S      44             0.6239137    0.535328142282
     15   S      45             0.1688554    0.444634542185

 H         

     16   S      46             3.4252509    0.154328967295
     16   S      47             0.6239137    0.535328142282
     16   S      48             0.1688554    0.444634542185

 H         

     17   S      49             3.4252509    0.154328967295
     17   S      50             0.6239137    0.535328142282
     17   S      51             0.1688554    0.444634542185

 H         

     18   S      52             3.4252509    0.154328967295
     18   S      53             0.6239137    0.535328142282
     18   S      54             0.1688554    0.444634542185

 BR        

     19   S      55          2629.9974710    0.154328967295
     19   S      56           479.0573224    0.535328142282
     19   S      57           129.6516070    0.444634542185

     20   L      58           219.8350255   -0.099967229187    0.155916274999
     20   L      59            51.0849322    0.399512826089    0.607683718598
     20   L      60            16.6144055    0.700115468880    0.391957393099

     21   L      61            20.6524416   -0.219620369005    0.010587604289
     21   L      62             5.7619788    0.225595433605    0.595167005266
     21   L      63             2.2551994    0.900398426019    0.462001011973

     22   D      64            22.3657496    0.168659606013
     22   D      65             7.0128139    0.584798481745
     22   D      66             2.7316638    0.405677952331

     23   L      67             1.3960375   -0.308844121382   -0.121546859998
     23   L      68             0.5152256    0.019606411652    0.571522760389
     23   L      69             0.2275291    1.131034441567    0.549894947089

 BR        

     24   S      70          2629.9974710    0.154328967295
     24   S      71           479.0573224    0.535328142282
     24   S      72           129.6516070    0.444634542185

     25   L      73           219.8350255   -0.099967229187    0.155916274999
     25   L      74            51.0849322    0.399512826089    0.607683718598
     25   L      75            16.6144055    0.700115468880    0.391957393099

     26   L      76            20.6524416   -0.219620369005    0.010587604289
     26   L      77             5.7619788    0.225595433605    0.595167005266
     26   L      78             2.2551994    0.900398426019    0.462001011973

     27   D      79            22.3657496    0.168659606013
     27   D      80             7.0128139    0.584798481745
     27   D      81             2.7316638    0.405677952331

     28   L      82             1.3960375   -0.308844121382   -0.121546859998
     28   L      83             0.5152256    0.019606411652    0.571522760389
     28   L      84             0.2275291    1.131034441567    0.549894947089

 TOTAL NUMBER OF BASIS SET SHELLS             =   28
 NUMBER OF CARTESIAN GAUSSIAN BASIS FUNCTIONS =   71
 NUMBER OF ELECTRONS                          =  108
 CHARGE OF MOLECULE                           =    0
 SPIN MULTIPLICITY                            =    1
 NUMBER OF OCCUPIED ORBITALS (ALPHA)          =   54
 NUMBER OF OCCUPIED ORBITALS (BETA )          =   54
 TOTAL NUMBER OF ATOMS                        =   15
 THE NUCLEAR REPULSION ENERGY IS      763.0498666914

     $CONTRL OPTIONS
     ---------------
 SCFTYP=RHF          RUNTYP=OPTIMIZE     EXETYP=RUN     
 MPLEVL=       0     CITYP =NONE         CCTYP =NONE         VBTYP =NONE    
 DFTTYP=NONE         TDDFT =NONE    
 MULT  =       1     ICHARG=       0     NZVAR =       1     COORD =UNIQUE  
 PP    =NONE         RELWFN=NONE         LOCAL =NONE         NUMGRD=       F
 ISPHER=      -1     NOSYM =       0     MAXIT =      30     UNITS =ANGS    
 PLTORB=       F     MOLPLT=       F     AIMPAC=       F     FRIEND=        
 NPRINT=       7     IREST =       0     GEOM  =INPUT   
 NORMF =       0     NORMP =       0     ITOL  =      20     ICUT  =       9
 INTTYP=BEST         GRDTYP=BEST         QMTTOL= 1.0E-06

     $SYSTEM OPTIONS
     ---------------
  REPLICATED MEMORY=     1000000 WORDS (ON EVERY NODE).
 DISTRIBUTED MEMDDI=           0 MILLION WORDS IN AGGREGATE,
 MEMDDI DISTRIBUTED OVER   1 PROCESSORS IS           0 WORDS/PROCESSOR.
 TOTAL MEMORY REQUESTED ON EACH PROCESSOR=     1000000 WORDS.
 TIMLIM=      525600.00 MINUTES, OR     365.0 DAYS.
 PARALL= F  BALTYP=  DLB     KDIAG=    0  COREFL= F
 MXSEQ2=     300 MXSEQ3=     150  mem10=         0

          ----------------
          PROPERTIES INPUT
          ----------------

     MOMENTS            FIELD           POTENTIAL          DENSITY
 IEMOM =       1   IEFLD =       0   IEPOT =       0   IEDEN =       0
 WHERE =COMASS     WHERE =NUCLEI     WHERE =NUCLEI     WHERE =NUCLEI  
 OUTPUT=BOTH       OUTPUT=BOTH       OUTPUT=BOTH       OUTPUT=BOTH    
 IEMINT=       0   IEFINT=       0                     IEDINT=       0
                                                       MORB  =       0
          EXTRAPOLATION IN EFFECT
          SOSCF IN EFFECT
 ORBITAL PRINTING OPTION: NPREO=     1    71     2     1

     -------------------------------
     INTEGRAL TRANSFORMATION OPTIONS
     -------------------------------
     NWORD  =            0
     CUTOFF = 1.0E-09     MPTRAN =       0
     DIRTRF =       F     AOINTS =DUP     

          ----------------------
          INTEGRAL INPUT OPTIONS
          ----------------------
 NOPK  =       1 NORDER=       0 SCHWRZ=       T


 -----------------------------------------------
  STATISTICS ON AUTOMATIC COORDINATE GENERATION 
 -----------------------------------------------
  NUMBER OF USER SPECIFIED BONDS                             2
  NUMBER OF BONDS                                           16
  NUMBER OF ANGLES                                          32
  NUMBER OF TORSIONS                                        42
  NUMBER OF EXTRA COORD.                                     0
  NUMBER OF EXTRA COORD. FOR CONSTRAINTS                     0
  NUMBER OF CONSTRAINED COORD.                               2

  TOTAL NUMBER OF PRIMITIVES                                90
 -----------------------------------------------

   --- ENCODED Z MATRIX ---
 COORD  TYPE   I   J   K   L   M   N
    1      1    4  14
    2      1   14  15
    3      1    1   6
    4      1    1   5
    5      1    1   2
    6      1    1   7
    7      1    2   9
    8      1    2   8
    9      1    2   3
   10      1    3   4
   11      1    3  11
   12      1    3  10
   13      1    4  14
   14      1    4  12
   15      1    4   5
   16      1    5  13
   17      2    1   2   8
   18      2    1   5   4
   19      2    1   2   9
   20      2    1   2   3
   21      2    1   5  13
   22      2    2   3   4
   23      2    2   1   7
   24      2    2   1   5
   25      2    2   1   6
   26      2    2   3  10
   27      2    2   3  11
   28      2    3   2   9
   29      2    3   2   8
   30      2    3   4   5
   31      2    3   4  12
   32      2    3   4  14
   33      2    3   4  14
   34      2    4  14  15
   35      2    4   5  13
   36      2    4   3  10
   37      2    4   3  11
   38      2    4  14  15
   39      2    5   4  14
   40      2    5   4  12
   41      2    5   1   6
   42      2    5   4  14
   43      2    5   1   7
   44      2    6   1   7
   45      2    8   2   9
   46      2   10   3  11
   47      2   12   4  14
   48      2   12   4  14
   49      3    1   5   4   3
   50      3    1   2   3  10
   51      3    1   5   4  12
   52      3    1   2   3  11
   53      3    1   2   3   4
   54      3    1   5   4  14
   55      3    2   3   4   5
   56      3    2   3   4  12
   57      3    2   3   4  14
   58      3    2   1   5  13
   59      3    2   1   5   4
   60      3    3   2   1   5
   61      3    3   2   1   6
   62      3    3   4   5  13
   63      3    3   4  14  15
   64      3    3   2   1   7
   65      3    4   5   1   7
   66      3    4   3   2   8
   67      3    4   3   2   9
   68      3    4   5   1   6
   69      3    5   4   3  10
   70      3    5   4   3  11
   71      3    5   1   2   9
   72      3    5   4  14  15
   73      3    5   1   2   8
   74      3    6   1   2   9
   75      3    6   1   5  13
   76      3    6   1   2   8
   77      3    7   1   2   8
   78      3    7   1   2   9
   79      3    7   1   5  13
   80      3    8   2   3  11
   81      3    8   2   3  10
   82      3    9   2   3  11
   83      3    9   2   3  10
   84      3   10   3   4  14
   85      3   10   3   4  12
   86      3   11   3   4  14
   87      3   11   3   4  12
   88      3   12   4   5  13
   89      3   12   4  14  15
   90      3   13   5   4  14

          INDEP./SYM. INTERNAL COORDINATES
          --------------------------------
 CRD  1=   1.0000 (  1)
 CRD  2=   1.0000 (  2)
 CRD  3=  -0.3004 (  4)  0.1090 (  5) -0.1210 (  6)  0.1278 ( 10) -0.4807 ( 15)
          -0.1147 ( 18) -0.1468 ( 20)  0.1683 ( 21) -0.1504 ( 22)  0.1668 ( 24)
           0.2159 ( 30) -0.2771 ( 34) -0.2771 ( 38) -0.2374 ( 39) -0.2374 ( 42)
          -0.1380 ( 43) -0.1254 ( 57) -0.1031 ( 65)  0.1125 ( 72)
 CRD  4=   0.1693 (  4) -0.1307 (  5)  0.1214 (  7)  0.1909 ( 10) -0.1045 ( 12)
           0.1442 ( 17) -0.1042 ( 18) -0.3792 ( 20)  0.3513 ( 22) -0.1613 ( 23)
           0.3410 ( 24) -0.1397 ( 25) -0.1660 ( 26) -0.1260 ( 27)  0.1619 ( 28)
           0.1300 ( 29) -0.1908 ( 30)  0.1704 ( 31) -0.1603 ( 37) -0.1353 ( 41)
           0.1336 ( 44) -0.1402 ( 45)  0.1282 ( 46) -0.1079 ( 62)  0.1521 ( 63)
 CRD  5=   0.3799 (  4)  0.2442 (  5)  0.1185 (  9) -0.2982 ( 10) -0.2624 ( 15)
           0.1068 ( 18)  0.1022 ( 19)  0.3509 ( 21)  0.1511 ( 22) -0.1906 ( 24)
           0.1123 ( 25) -0.4555 ( 35) -0.1699 ( 36)  0.1491 ( 43) -0.1030 ( 44)
 CRD  6=  -0.4991 (  5) -0.1090 (  6) -0.1682 (  7) -0.4228 (  9) -0.1354 ( 10)
          -0.1139 ( 12) -0.1237 ( 15) -0.1148 ( 17)  0.1298 ( 20) -0.1676 ( 23)
          -0.1756 ( 27) -0.1150 ( 28) -0.1056 ( 30)  0.1469 ( 32)  0.1469 ( 33)
           0.1554 ( 37)  0.1017 ( 40)  0.1069 ( 41)  0.1098 ( 43)  0.1052 ( 45)
          -0.1058 ( 58)  0.1024 ( 64)  0.1042 ( 65) -0.1330 ( 66) -0.1083 ( 68)
          -0.1291 ( 75)
 CRD  7=  -0.1384 (  4) -0.3667 (  5)  0.5168 (  9) -0.2271 ( 10) -0.1011 ( 15)
          -0.1883 ( 16) -0.1108 ( 17)  0.1166 ( 18) -0.1259 ( 19) -0.1363 ( 21)
           0.1722 ( 26)  0.1079 ( 27)  0.1971 ( 28)  0.1683 ( 29) -0.1303 ( 36)
          -0.1141 ( 66)  0.1069 ( 69)  0.1135 ( 71) -0.1038 ( 72) -0.1058 ( 76)
           0.1004 ( 78) -0.1781 ( 80)  0.1717 ( 83)
 CRD  8=  -0.3186 (  4) -0.2312 (  9) -0.4327 ( 10) -0.1851 ( 12) -0.1391 ( 15)
          -0.2046 ( 16)  0.2004 ( 17) -0.1487 ( 20) -0.2146 ( 21)  0.1510 ( 22)
           0.1787 ( 23) -0.1111 ( 26) -0.1230 ( 29)  0.1320 ( 35) -0.1085 ( 37)
          -0.1724 ( 43)  0.1133 ( 46) -0.1178 ( 51) -0.1000 ( 52)  0.1235 ( 55)
           0.1089 ( 57) -0.1269 ( 64) -0.1003 ( 65)  0.1441 ( 73)  0.1180 ( 76)
          -0.1127 ( 78) -0.1014 ( 79)  0.1053 ( 89)
 CRD  9=  -0.2426 (  5) -0.2312 ( 15)  0.1014 ( 17) -0.2394 ( 19)  0.1102 ( 20)
           0.2164 ( 21) -0.1148 ( 22) -0.2307 ( 25) -0.1224 ( 26)  0.2054 ( 27)
           0.1522 ( 28) -0.1961 ( 29)  0.1017 ( 30)  0.1403 ( 31) -0.1451 ( 32)
          -0.1451 ( 33)  0.1330 ( 34) -0.2041 ( 35)  0.2107 ( 36) -0.1543 ( 37)
           0.1330 ( 38) -0.1746 ( 40)  0.1385 ( 41) -0.1458 ( 49) -0.1207 ( 52)
           0.1071 ( 56)  0.1091 ( 58)  0.1711 ( 59) -0.1486 ( 61) -0.1214 ( 62)
           0.1044 ( 65)  0.1016 ( 66)  0.1529 ( 67) -0.1251 ( 89)
 CRD 10=   0.1319 (  3)  0.2753 (  4)  0.1116 (  9)  0.1388 ( 10)  0.1905 ( 14)
           0.1121 ( 15)  0.1299 ( 16)  0.1513 ( 17) -0.1404 ( 19)  0.1487 ( 23)
          -0.2189 ( 25)  0.1001 ( 28) -0.1144 ( 31) -0.1173 ( 34) -0.1173 ( 38)
          -0.1725 ( 39)  0.1911 ( 40)  0.2694 ( 41) -0.1725 ( 42) -0.1348 ( 43)
          -0.1011 ( 49) -0.1275 ( 50) -0.1223 ( 51) -0.1038 ( 52) -0.1775 ( 53)
          -0.1186 ( 54)  0.1535 ( 55)  0.1130 ( 60) -0.1088 ( 62) -0.1324 ( 63)
          -0.1487 ( 68)  0.1500 ( 69)  0.1270 ( 70)  0.1536 ( 71) -0.1689 ( 72)
           0.1398 ( 73) -0.1364 ( 75) -0.1301 ( 88) -0.1263 ( 90)
 CRD 11=  -0.2555 ( 10) -0.2638 ( 14)  0.1593 ( 15)  0.4152 ( 16) -0.2841 ( 18)
           0.1734 ( 21)  0.1174 ( 24) -0.1327 ( 25)  0.1095 ( 26)  0.1154 ( 29)
           0.2243 ( 30) -0.1399 ( 31) -0.1065 ( 32) -0.1065 ( 33)  0.1139 ( 34)
           0.1082 ( 35)  0.1139 ( 38)  0.1084 ( 63)  0.3148 ( 72)  0.1473 ( 84)
           0.2861 ( 89)
 CRD 12=   0.2078 (  6) -0.1872 (  7) -0.1510 ( 10) -0.2408 ( 11)  0.1812 ( 12)
           0.1054 ( 14)  0.1396 ( 15)  0.1061 ( 17) -0.1364 ( 19)  0.1077 ( 23)
          -0.1050 ( 34)  0.1310 ( 36) -0.1575 ( 37) -0.1050 ( 38)  0.1475 ( 40)
           0.1506 ( 43) -0.1684 ( 50) -0.1779 ( 52)  0.1002 ( 54) -0.2027 ( 56)
          -0.1705 ( 57)  0.1401 ( 58)  0.1185 ( 61)  0.2345 ( 63)  0.1390 ( 64)
          -0.1223 ( 65)  0.2008 ( 66)  0.2075 ( 67) -0.1026 ( 68)  0.1194 ( 69)
           0.1291 ( 70) -0.1818 ( 71)  0.1168 ( 72) -0.1573 ( 73)  0.2331 ( 89)
 CRD 13=   0.2625 (  3) -0.2339 (  6)  0.1223 (  8) -0.2135 ( 11)  0.1908 ( 12)
          -0.2461 ( 14)  0.1313 ( 16)  0.1520 ( 17) -0.1493 ( 19) -0.2479 ( 23)
           0.2045 ( 25) -0.1082 ( 26)  0.1043 ( 27)  0.1716 ( 28) -0.1220 ( 29)
          -0.1837 ( 31)  0.1279 ( 32)  0.1279 ( 33)  0.1385 ( 36) -0.1755 ( 37)
          -0.1079 ( 51) -0.1203 ( 58)  0.1448 ( 62) -0.1029 ( 63)  0.1966 ( 65)
           0.1401 ( 66)  0.1379 ( 67)  0.1814 ( 68) -0.1044 ( 69) -0.1103 ( 70)
           0.1148 ( 71)  0.1089 ( 75)  0.1240 ( 79)
 CRD 14=   0.1250 (  3) -0.3857 (  7)  0.4939 (  8)  0.3012 ( 11) -0.1854 ( 12)
           0.1054 ( 25) -0.1341 ( 26)  0.1401 ( 27) -0.1344 ( 28)  0.1472 ( 29)
           0.1100 ( 36)  0.1282 ( 43) -0.1879 ( 50) -0.1541 ( 52) -0.1510 ( 53)
           0.1069 ( 55)  0.1430 ( 56)  0.1284 ( 57)  0.1344 ( 60)  0.1971 ( 61)
           0.2211 ( 64) -0.1006 ( 89)
 CRD 15=   0.3698 (  3) -0.2650 (  6)  0.2367 ( 14)  0.1224 ( 17) -0.1349 ( 19)
           0.1821 ( 26) -0.1684 ( 27)  0.1175 ( 28) -0.1026 ( 29)  0.1607 ( 31)
          -0.1642 ( 32) -0.1642 ( 33) -0.1112 ( 36)  0.1242 ( 37)  0.2171 ( 51)
           0.2301 ( 54)  0.1930 ( 63)  0.1465 ( 69)  0.1468 ( 70)  0.1493 ( 71)
           0.1111 ( 72)  0.1448 ( 73)  0.1232 ( 84)  0.1429 ( 85)  0.1236 ( 86)
           0.1433 ( 87)  0.1729 ( 88)  0.1859 ( 90)
 CRD 16=  -0.1295 (  7) -0.1852 ( 11)  0.3000 ( 12) -0.5817 ( 14)  0.1200 ( 23)
          -0.1079 ( 25) -0.1015 ( 27)  0.1193 ( 39)  0.1193 ( 42) -0.1746 ( 63)
          -0.1937 ( 65) -0.1962 ( 68) -0.1640 ( 75) -0.1614 ( 79)  0.1757 ( 84)
           0.1103 ( 85)  0.1895 ( 86)  0.1242 ( 87) -0.1939 ( 89)
 CRD 17=  -0.3604 (  3)  0.1340 ( 11) -0.1678 ( 16)  0.1316 ( 17) -0.1109 ( 19)
          -0.1114 ( 23)  0.1030 ( 25)  0.1365 ( 26) -0.1223 ( 27) -0.1050 ( 29)
          -0.1333 ( 36)  0.1322 ( 37) -0.1506 ( 41)  0.1600 ( 43) -0.1194 ( 49)
          -0.1392 ( 51) -0.1391 ( 54)  0.1083 ( 59) -0.1143 ( 63)  0.1160 ( 64)
           0.1475 ( 65)  0.1766 ( 68)  0.1642 ( 69)  0.1687 ( 70)  0.1249 ( 74)
           0.1463 ( 75)  0.1330 ( 76)  0.1741 ( 77)  0.1660 ( 78)  0.1173 ( 79)
           0.1634 ( 80)  0.1802 ( 81)  0.1464 ( 82)  0.1632 ( 83)  0.1488 ( 84)
           0.1117 ( 85)  0.1534 ( 86)  0.1163 ( 87) -0.1147 ( 88) -0.1146 ( 90)
 CRD 18=  -0.5311 (  3) -0.6536 (  6)  0.1333 (  8)  0.1340 ( 23)  0.1025 ( 41)
          -0.2550 ( 44) -0.1068 ( 61) -0.1622 ( 65) -0.1425 ( 74) -0.1125 ( 76)
          -0.1513 ( 79)
 CRD 19=  -0.1022 (  6) -0.3870 (  7) -0.4080 (  8)  0.4820 ( 11)  0.4700 ( 12)
          -0.1461 ( 45)  0.1810 ( 46)  0.1119 ( 81) -0.1639 ( 82)
 CRD 20=   0.5056 (  7)  0.4268 (  8)  0.3617 ( 11)  0.4141 ( 12)  0.1803 ( 45)
           0.1516 ( 46) -0.1038 ( 78) -0.1508 ( 80)  0.1218 ( 83)
 CRD 21=  -0.1624 (  3)  0.1842 (  6)  0.3022 ( 11) -0.2880 ( 12) -0.1310 ( 14)
           0.1792 ( 16)  0.1142 ( 17) -0.1304 ( 19)  0.1330 ( 28) -0.1297 ( 29)
           0.1297 ( 49)  0.1383 ( 51)  0.1179 ( 54) -0.1108 ( 59) -0.1783 ( 65)
           0.1039 ( 67) -0.1365 ( 68) -0.1732 ( 69) -0.1416 ( 70)  0.1146 ( 71)
           0.1185 ( 73)  0.1619 ( 74) -0.1002 ( 75)  0.1658 ( 76)  0.1698 ( 77)
           0.1658 ( 78) -0.1419 ( 79)  0.1451 ( 80)  0.1543 ( 81)  0.1549 ( 82)
           0.1641 ( 83) -0.1712 ( 84) -0.1357 ( 85) -0.1396 ( 86) -0.1041 ( 87)
           0.1083 ( 88)
 CRD 22=  -0.1226 (  3)  0.1313 (  6)  0.2721 (  7) -0.2916 (  8) -0.1374 ( 11)
           0.1468 ( 12)  0.1077 ( 43) -0.1877 ( 50) -0.1685 ( 52) -0.1074 ( 53)
           0.1149 ( 60)  0.1775 ( 61)  0.2045 ( 64) -0.1369 ( 66) -0.1501 ( 67)
           0.1531 ( 71)  0.1478 ( 73)  0.2157 ( 74)  0.2104 ( 76)  0.2374 ( 77)
           0.2427 ( 78) -0.1979 ( 80) -0.2171 ( 81) -0.2111 ( 82) -0.2303 ( 83)
 CRD 23=  -0.1471 (  3)  0.1088 (  6) -0.1376 (  7)  0.1585 (  8) -0.1545 ( 11)
           0.1616 ( 12)  0.3610 ( 14) -0.2294 ( 31)  0.1177 ( 39) -0.1152 ( 40)
           0.1177 ( 42)  0.2643 ( 47)  0.2643 ( 48) -0.2687 ( 51)  0.2204 ( 56)
          -0.1424 ( 58)  0.1570 ( 62) -0.1263 ( 69) -0.1130 ( 70) -0.1707 ( 75)
          -0.1299 ( 79)  0.1838 ( 85)  0.1971 ( 87) -0.2081 ( 88)  0.1134 ( 90)
 CRD 24=  -0.1159 (  3)  0.2156 (  4)  0.2366 (  6) -0.1225 (  7)  0.1500 (  8)
          -0.1451 ( 11) -0.3225 ( 15)  0.4049 ( 16) -0.3493 ( 21)  0.1056 ( 25)
           0.1178 ( 31)  0.2665 ( 35) -0.1112 ( 39) -0.1334 ( 40) -0.1112 ( 42)
          -0.1155 ( 44)  0.1422 ( 56)  0.1348 ( 68)  0.1309 ( 75) -0.1271 ( 84)
           0.1683 ( 87) -0.1136 ( 89)
 CRD 25=   0.2778 (  4)  0.1343 (  7)  0.1019 ( 10)  0.1006 ( 11) -0.2639 ( 14)
          -0.5302 ( 16) -0.1903 ( 21)  0.2728 ( 35)  0.1288 ( 41)  0.1154 ( 43)
           0.1636 ( 47)  0.1636 ( 48) -0.1079 ( 61)  0.1213 ( 63)  0.1092 ( 64)
           0.1374 ( 72) -0.1001 ( 74) -0.1612 ( 76)  0.1170 ( 78)  0.1731 ( 89)
           0.1088 ( 90)
 CRD 26=   0.2835 (  3)  0.1291 (  7) -0.2531 (  8) -0.1156 (  9)  0.1843 ( 11)
          -0.1804 ( 12) -0.1895 ( 15)  0.2023 ( 16) -0.1212 ( 19)  0.1550 ( 23)
          -0.1298 ( 31) -0.1426 ( 37)  0.1189 ( 39) -0.1181 ( 41)  0.1189 ( 42)
          -0.1549 ( 44)  0.1151 ( 45) -0.1310 ( 51)  0.1294 ( 58) -0.1123 ( 63)
          -0.2117 ( 65)  0.2211 ( 67) -0.1570 ( 71) -0.1147 ( 73)  0.1782 ( 75)
           0.1166 ( 83)  0.1428 ( 84)  0.1404 ( 85) -0.2661 ( 88) -0.1106 ( 90)
 CRD 27=   0.1107 (  3) -0.1184 (  4) -0.1780 (  6)  0.1123 (  7)  0.2417 (  9)
          -0.1615 ( 10) -0.1124 ( 12) -0.2449 ( 14)  0.4043 ( 15) -0.1270 ( 27)
          -0.1092 ( 30)  0.1385 ( 31) -0.1198 ( 34) -0.1584 ( 35) -0.1198 ( 38)
          -0.1123 ( 39) -0.1304 ( 40) -0.1123 ( 42)  0.1463 ( 47)  0.1463 ( 48)
           0.2147 ( 56) -0.1118 ( 57) -0.1070 ( 62)  0.1412 ( 63)  0.1486 ( 70)
          -0.1877 ( 84)  0.1388 ( 85)  0.3098 ( 87) -0.1312 ( 89)
 CRD 28=   0.1865 (  5)  0.1775 (  6) -0.2035 (  9)  0.1010 ( 10) -0.1144 ( 12)
           0.2014 ( 15) -0.1752 ( 16) -0.2376 ( 17) -0.1079 ( 18) -0.2232 ( 19)
           0.1760 ( 21)  0.1022 ( 23)  0.2441 ( 28)  0.1909 ( 29) -0.1210 ( 43)
          -0.1388 ( 44)  0.1740 ( 46) -0.1913 ( 66)  0.1175 ( 67)  0.1718 ( 68)
           0.1115 ( 70)  0.2129 ( 71)  0.1116 ( 74)  0.1252 ( 75) -0.1619 ( 76)
          -0.1263 ( 77)  0.1472 ( 78) -0.1193 ( 79) -0.2522 ( 80) -0.1282 ( 81)
           0.1807 ( 83)  0.1066 ( 87)
 CRD 29=   0.2596 (  4) -0.2191 (  7)  0.2645 ( 10)  0.1154 ( 15) -0.2007 ( 16)
           0.1547 ( 26)  0.1703 ( 27) -0.1505 ( 29) -0.2181 ( 36) -0.1547 ( 37)
          -0.1129 ( 41) -0.1112 ( 43)  0.2093 ( 45)  0.1440 ( 50)  0.1649 ( 63)
          -0.1197 ( 66) -0.1459 ( 70)  0.1037 ( 72)  0.1896 ( 73)  0.2660 ( 76)
           0.1269 ( 77) -0.1386 ( 78) -0.1874 ( 80)  0.1360 ( 83)  0.1838 ( 85)
          -0.2143 ( 86)
 CRD 30=  -0.2037 (  4)  0.2866 (  5) -0.1812 (  9)  0.1611 ( 14) -0.1570 ( 23)
          -0.1846 ( 25)  0.1160 ( 27)  0.1191 ( 32)  0.1191 ( 33)  0.1016 ( 35)
          -0.1248 ( 36) -0.1940 ( 37) -0.1680 ( 40)  0.1553 ( 41)  0.2192 ( 43)
           0.1141 ( 46)  0.1504 ( 50)  0.1106 ( 51) -0.1333 ( 52)  0.1676 ( 64)
           0.1016 ( 65) -0.1699 ( 68) -0.1120 ( 74) -0.1461 ( 75) -0.1430 ( 76)
           0.1246 ( 78)  0.1254 ( 79) -0.1037 ( 80)  0.1800 ( 81) -0.1140 ( 82)
           0.1696 ( 83)  0.1387 ( 85)  0.1043 ( 88) -0.2086 ( 89)
 CRD 31=  -0.2562 (  4)  0.1025 (  6)  0.1215 (  7) -0.1540 (  9)  0.2313 ( 10)
           0.1550 ( 11) -0.1510 ( 14)  0.1363 ( 16)  0.2051 ( 18)  0.1149 ( 27)
          -0.2006 ( 30)  0.1179 ( 32)  0.1179 ( 33) -0.2131 ( 35)  0.1321 ( 40)
          -0.1829 ( 46) -0.1127 ( 51)  0.1263 ( 55) -0.1648 ( 58)  0.2701 ( 63)
           0.1058 ( 68)  0.2269 ( 69) -0.1621 ( 76) -0.1268 ( 79)  0.1921 ( 85)
          -0.1776 ( 86)  0.1896 ( 89)  0.1511 ( 90)
 CRD 32=  -0.2754 (  3)  0.1736 (  5)  0.1495 ( 10)  0.1383 ( 11) -0.2424 ( 12)
          -0.1734 ( 14)  0.1092 ( 16) -0.1608 ( 23)  0.1261 ( 26) -0.1049 ( 27)
          -0.1105 ( 29) -0.1391 ( 37)  0.1215 ( 40)  0.1708 ( 44) -0.1776 ( 52)
           0.2413 ( 54) -0.1203 ( 56) -0.1135 ( 57) -0.1738 ( 64)  0.1833 ( 65)
           0.1066 ( 69)  0.1338 ( 70) -0.1840 ( 72)  0.1054 ( 73) -0.1575 ( 78)
           0.2419 ( 79) -0.1900 ( 80) -0.1807 ( 82)  0.1742 ( 90)
 CRD 33=   0.3018 (  5) -0.2457 (  6) -0.1556 (  8)  0.1723 (  9) -0.1698 ( 15)
          -0.1069 ( 17)  0.1538 ( 18) -0.1314 ( 19) -0.1584 ( 21) -0.1030 ( 24)
          -0.1380 ( 26)  0.1100 ( 34)  0.1100 ( 38) -0.1084 ( 41)  0.1880 ( 44)
           0.1796 ( 45)  0.1669 ( 61)  0.1081 ( 65) -0.1388 ( 66)  0.1358 ( 67)
          -0.1185 ( 68)  0.1147 ( 70) -0.1402 ( 71) -0.2800 ( 75)  0.1536 ( 76)
           0.1944 ( 82)  0.1806 ( 83) -0.1401 ( 85)
 CRD 34=   0.1332 (  3) -0.1853 (  4) -0.1155 (  7)  0.1483 (  8)  0.1994 ( 10)
          -0.1657 ( 11)  0.1110 ( 12) -0.1540 ( 14)  0.1125 ( 16) -0.1274 ( 17)
           0.1563 ( 18)  0.1050 ( 19) -0.1722 ( 25) -0.1076 ( 30) -0.1319 ( 32)
          -0.1319 ( 33) -0.1045 ( 35) -0.1283 ( 36)  0.1153 ( 40)  0.1388 ( 43)
           0.1911 ( 50)  0.1233 ( 52)  0.1594 ( 54)  0.2404 ( 58) -0.2401 ( 62)
           0.1083 ( 64) -0.1237 ( 66) -0.1315 ( 67) -0.1308 ( 68) -0.1082 ( 72)
           0.1767 ( 77)  0.2290 ( 78)  0.1468 ( 79) -0.1074 ( 84) -0.1201 ( 85)
          -0.1025 ( 86) -0.1151 ( 87) -0.2448 ( 88)  0.1075 ( 89)
 CRD 35=   0.1689 (  4)  0.1776 (  5) -0.1374 (  6) -0.2830 (  9) -0.1820 ( 10)
           0.1589 ( 11)  0.1231 ( 12) -0.1188 ( 17) -0.1024 ( 19)  0.1452 ( 22)
          -0.1494 ( 24)  0.1821 ( 28)  0.1796 ( 44) -0.2213 ( 46) -0.1179 ( 50)
           0.1322 ( 52)  0.1441 ( 58) -0.1537 ( 64) -0.1395 ( 68) -0.1657 ( 70)
           0.1367 ( 71)  0.2722 ( 74) -0.1865 ( 77)  0.1858 ( 79) -0.2063 ( 81)
           0.1277 ( 82) -0.1224 ( 83)  0.1222 ( 84)  0.1814 ( 85) -0.1259 ( 86)
          -0.1223 ( 90)
 CRD 36=   0.1800 (  4) -0.1490 (  5) -0.1140 (  6)  0.2300 (  7) -0.1678 (  9)
           0.1830 ( 10) -0.1065 ( 11)  0.2227 ( 20) -0.1292 ( 22)  0.1081 ( 23)
          -0.1205 ( 24) -0.1225 ( 41)  0.1155 ( 44) -0.2448 ( 45)  0.1249 ( 46)
          -0.1697 ( 52)  0.2225 ( 61)  0.1627 ( 66) -0.1234 ( 67) -0.2207 ( 73)
           0.2746 ( 74) -0.2924 ( 77)  0.3161 ( 81) -0.2266 ( 82)
 CRD 37=  -0.1167 (  8) -0.2000 (  9) -0.2158 ( 10)  0.1487 ( 12)  0.1125 ( 15)
          -0.1608 ( 18) -0.1092 ( 20)  0.1408 ( 22)  0.1338 ( 29) -0.1988 ( 32)
          -0.1988 ( 33) -0.1143 ( 36)  0.1441 ( 47)  0.1441 ( 48) -0.1009 ( 53)
           0.1824 ( 54)  0.1154 ( 55)  0.1027 ( 61) -0.1958 ( 63)  0.1143 ( 64)
           0.1081 ( 69) -0.1160 ( 71) -0.3680 ( 72)  0.1570 ( 82)  0.1056 ( 83)
          -0.2189 ( 86) -0.1505 ( 87) -0.2315 ( 89)  0.2708 ( 90)
 CRD 38=  -0.1635 (  3)  0.1037 (  6)  0.1146 (  7) -0.1735 (  8) -0.1196 ( 11)
           0.1212 ( 17) -0.1381 ( 19) -0.1100 ( 23)  0.1282 ( 25) -0.1307 ( 26)
           0.1391 ( 27) -0.1009 ( 28)  0.1269 ( 41) -0.1091 ( 43)  0.1009 ( 51)
          -0.2220 ( 53)  0.1354 ( 56)  0.1613 ( 57) -0.2119 ( 59)  0.2433 ( 60)
          -0.1711 ( 62)  0.1148 ( 63) -0.1090 ( 69)  0.1100 ( 72) -0.1371 ( 74)
           0.1891 ( 75) -0.1489 ( 77) -0.2039 ( 78)  0.2582 ( 79)  0.1224 ( 81)
           0.1617 ( 82)  0.1870 ( 83) -0.1481 ( 88) -0.1724 ( 90)
 CRD 39=   0.1547 ( 32)  0.1547 ( 33)  0.5071 ( 34)  0.5071 ( 38) -0.1889 ( 39)
          -0.1889 ( 42)  0.1117 ( 47)  0.1117 ( 48)  0.1644 ( 49) -0.1050 ( 55)
          -0.2411 ( 57) -0.1638 ( 59) -0.1213 ( 65) -0.1258 ( 68) -0.1538 ( 84)
          -0.1426 ( 86) -0.1470 ( 88) -0.1101 ( 90)

 THE DETERMINANT OF THE G MATRIX IS 10**(   -16)


                     --------------------
                     INTERNAL COORDINATES
                     --------------------

                 - - ATOMS - -         COORDINATE      COORDINATE
 NO.   TYPE    I  J  K  L  M  N        (BOHR,RAD)       (ANG,DEG)
 ----------------------------------------------------------------
   1 STRETCH   4 14                     3.4200242       1.8097990
   2 STRETCH  14 15                     5.6637831       2.9971451
   3 STRETCH   1  6                     2.0686351       1.0946746
   4 STRETCH   1  5                     2.8150920       1.4896827
   5 STRETCH   1  2                     2.8693348       1.5183867
   6 STRETCH   1  7                     2.0664120       1.0934982
   7 STRETCH   2  9                     2.0687861       1.0947545
   8 STRETCH   2  8                     2.0744316       1.0977420
   9 STRETCH   2  3                     2.8834974       1.5258812
  10 STRETCH   3  4                     2.9875843       1.5809616
  11 STRETCH   3 11                     2.0710102       1.0959315
  12 STRETCH   3 10                     2.0706601       1.0957462
  13 STRETCH   4 14                     3.4200242       1.8097990
  14 STRETCH   4 12                     2.1350653       1.1298280
  15 STRETCH   4  5                     2.6099643       1.3811337
  16 STRETCH   5 13                     2.0484868       1.0840126
  17 BEND      1  2  8                  1.9203934     110.0304395
  18 BEND      1  5  4                  1.9910650     114.0796239
  19 BEND      1  2  9                  1.9558956     112.0645650
  20 BEND      1  2  3                  1.8472587     105.8401286
  21 BEND      1  5 13                  2.1319501     122.1517408
  22 BEND      2  3  4                  1.8348213     105.1275146
  23 BEND      2  1  7                  1.9374972     111.0104109
  24 BEND      2  1  5                  1.7765972     101.7915190
  25 BEND      2  1  6                  1.9622676     112.4296541
  26 BEND      2  3 10                  1.9375440     111.0130935
  27 BEND      2  3 11                  1.9262364     110.3652169
  28 BEND      3  2  9                  1.9567886     112.1157277
  29 BEND      3  2  8                  1.9140162     109.6650494
  30 BEND      3  4  5                  1.8269257     104.6751312
  31 BEND      3  4 12                  2.0252038     116.0356279
  32 BEND      3  4 14                  1.9541126     111.9624024
  33 BEND      3  4 14                  1.9541126     111.9624024
  34 BEND      4 14 15                  2.1016567     120.4160589
  35 BEND      4  5 13                  2.1511541     123.2520508
  36 BEND      4  3 10                  1.9196500     109.9878456
  37 BEND      4  3 11                  1.9571384     112.1357698
  38 BEND      4 14 15                  2.1016567     120.4160589
  39 BEND      5  4 14                  2.0665312     118.4035141
  40 BEND      5  4 12                  1.9095106     109.4068989
  41 BEND      5  1  6                  1.9271912     110.4199214
  42 BEND      5  4 14                  2.0665312     118.4035141
  43 BEND      5  1  7                  1.9555343     112.0438604
  44 BEND      6  1  7                  1.9031056     109.0399189
  45 BEND      8  2  9                  1.8699271     107.1389313
  46 BEND     10  3 11                  1.8888758     108.2246104
  47 BEND     12  4 14                  1.6897841      96.8174954
  48 BEND     12  4 14                  1.6897841      96.8174954
  49 TORSION   1  5  4  3               0.2786500      15.9654690
  50 TORSION   1  2  3 10              -2.4216354    -138.7494889
  51 TORSION   1  5  4 12               2.4600020     140.9477350
  52 TORSION   1  2  3 11               1.7672129     101.2538426
  53 TORSION   1  2  3  4              -0.3465797     -19.8575516
  54 TORSION   1  5  4 14              -1.9122742    -109.5652413
  55 TORSION   2  3  4  5               0.0544077       3.1173291
  56 TORSION   2  3  4 12              -2.0518082    -117.5599511
  57 TORSION   2  3  4 14               2.3142521     132.5968765
  58 TORSION   2  1  5 13               2.5069588     143.6381592
  59 TORSION   2  1  5  4              -0.4950538     -28.3644951
  60 TORSION   3  2  1  5               0.4875055      27.9320052
  61 TORSION   3  2  1  6              -1.5745757     -90.2165432
  62 TORSION   3  4  5 13              -2.7216194    -155.9373043
  63 TORSION   3  4 14 15               1.1201172      64.1779903
  64 TORSION   3  2  1  7               2.5714137     147.3311526
  65 TORSION   4  5  1  7              -2.5661432    -147.0291738
  66 TORSION   4  3  2  8               1.7242845      98.7942268
  67 TORSION   4  3  2  9              -2.4840045    -142.3229747
  68 TORSION   4  5  1  6               1.5919989      91.2148161
  69 TORSION   5  4  3 10               2.1414179     122.6942059
  70 TORSION   5  4  3 11              -2.0390049    -116.8263743
  71 TORSION   5  1  2  9               2.6254996     150.4300454
  72 TORSION   5  4 14 15              -3.0352969    -173.9097017
  73 TORSION   5  1  2  8              -1.5791244     -90.4771647
  74 TORSION   6  1  2  9               0.5634184      32.2814970
  75 TORSION   6  1  5 13              -1.6891738     -96.7825296
  76 TORSION   6  1  2  8               2.6419797     151.3742869
  77 TORSION   7  1  2  8               0.5047838      28.9219827
  78 TORSION   7  1  2  9              -1.5737775     -90.1708072
  79 TORSION   7  1  5 13               0.4358695      24.9734805
  80 TORSION   8  2  3 11              -2.4451082    -140.0943790
  81 TORSION   8  2  3 10              -0.3507712     -20.0977105
  82 TORSION   9  2  3 11              -0.3702119     -21.2115805
  83 TORSION   9  2  3 10               1.7241250      98.7850881
  84 TORSION  10  3  4 14              -1.8819230    -107.8262468
  85 TORSION  10  3  4 12               0.0352020       2.0169257
  86 TORSION  11  3  4 14               0.2208395      12.6531730
  87 TORSION  11  3  4 12               2.1379646     122.4963455
  88 TORSION  12  4  5 13              -0.5402673     -30.9550383
  89 TORSION  12  4 14 15              -1.0032264     -57.4806373
  90 TORSION  13  5  4 14               1.3706417      78.5319854

     ------------------------------------------
     THE POINT GROUP IS C1 , NAXIS= 0, ORDER= 1
     ------------------------------------------

     DIMENSIONS OF THE SYMMETRY SUBSPACES ARE
 A   =   71

 ..... DONE SETTING UP THE RUN .....
 STEP CPU TIME =     0.05 TOTAL CPU TIME =          0.0 (      0.0 MIN)
 TOTAL WALL CLOCK TIME=          0.1 SECONDS, CPU UTILIZATION IS    83.33%


          -----------------------------
          STATIONARY POINT LOCATION RUN
          -----------------------------


           ** GEOMETRY CONSTRAINTS ARE BEING APPLIED. **

          TRANSFORMING DISPLACEMENT FROM INTERNALS TO CARTESIANS
          THE ROOT MEAN SQUARE ERROR IN ITERATION   1 IS   0.00000009
          THE ROOT MEAN SQUARE ERROR IN ITERATION   2 IS   0.00000000
 WARNING! THE RADIUS IN CARTESIANS IS    0.00772
 OBTAINING INITIAL HESSIAN, HESS=CALC    

     ---------------------------------
     HESSIAN MATRIX CONTROL PARAMETERS
     ---------------------------------
     METHOD=ANALYTIC   NVIB  =       2   VIBSIZ= 0.01000
     RDHESS=       F   PURIFY=       F   PRTIFC=       F
     VIBANL=       F   DECOMP=       F   PROJCT=       F
     SCLFAC= 1.00000   PRTSCN=       F   NPRT  =       0
     PULCOR=       F   NPUN  =       0   REDOVB=       T
     HSSTYP=GENERAL 
 Old integral subroutine is used

     ------------------------------
     CPHF RESPONSE SOLUTION OPTIONS
     ------------------------------
     POLAR  =       F     NWORD  =       0
     CPHF   =AO      

          ********************
          1 ELECTRON INTEGRALS
          ********************
 ...... END OF ONE-ELECTRON INTEGRALS ......
 STEP CPU TIME =     0.03 TOTAL CPU TIME =          0.1 (      0.0 MIN)
 TOTAL WALL CLOCK TIME=          0.1 SECONDS, CPU UTILIZATION IS    80.00%

          -------------
          GUESS OPTIONS
          -------------
          GUESS =HUCKEL            NORB  =       0          NORDER=       0
          MIX   =       F          PRTMO =       F          PUNMO =       F
          TOLZ  = 1.0E-08          TOLE  = 1.0E-05
          SYMDEN=       F          PURIFY=       F

 INITIAL GUESS ORBITALS GENERATED BY HUCKEL   ROUTINE.
 HUCKEL GUESS REQUIRES     66792 WORDS.

 SYMMETRIES FOR INITIAL GUESS ORBITALS FOLLOW.   BOTH SET(S).
    54 ORBITALS ARE OCCUPIED (   33 CORE ORBITALS).
    34=A       35=A       36=A       37=A       38=A       39=A       40=A   
    41=A       42=A       43=A       44=A       45=A       46=A       47=A   
    48=A       49=A       50=A       51=A       52=A       53=A       54=A   
    55=A       56=A       57=A       58=A       59=A       60=A       61=A   
    62=A       63=A       64=A   
 ...... END OF INITIAL ORBITAL SELECTION ......
 STEP CPU TIME =     0.02 TOTAL CPU TIME =          0.1 (      0.0 MIN)
 TOTAL WALL CLOCK TIME=          0.1 SECONDS, CPU UTILIZATION IS    90.91%

                    ----------------------
                    AO INTEGRAL TECHNOLOGY
                    ----------------------
     S,P,L SHELL ROTATED AXIS INTEGRALS, REPROGRAMMED BY
        KAZUYA ISHIMURA (IMS) AND JOSE SIERRA (SYNSTAR).
     S,P,D,L SHELL ROTATED AXIS INTEGRALS PROGRAMMED BY
        KAZUYA ISHIMURA (INSTITUTE FOR MOLECULAR SCIENCE).
     S,P,D,F,G SHELL TO TOTAL QUARTET ANGULAR MOMENTUM SUM 5,
        ERIC PROGRAM BY GRAHAM FLETCHER (ELORET AND NASA ADVANCED
        SUPERCOMPUTING DIVISION, AMES RESEARCH CENTER).
     S,P,D,F,G,L SHELL GENERAL RYS QUADRATURE PROGRAMMED BY
        MICHEL DUPUIS (PACIFIC NORTHWEST NATIONAL LABORATORY).

          --------------------
          2 ELECTRON INTEGRALS
          --------------------

 THE -PK- OPTION IS OFF, THE INTEGRALS ARE NOT IN SUPERMATRIX FORM.
 STORING   15000 INTEGRALS/RECORD ON DISK, USING 12 BYTES/INTEGRAL.
 TWO ELECTRON INTEGRAL EVALUATION REQUIRES   90802 WORDS OF MEMORY.
 SCHWARZ INEQUALITY OVERHEAD:      2213 INTEGRALS, T=        0.01
 II,JST,KST,LST =  1  1  1  1 NREC =         1 INTLOC =    1
 II,JST,KST,LST =  2  1  1  1 NREC =         1 INTLOC =    2
 II,JST,KST,LST =  3  1  1  1 NREC =         1 INTLOC =   34
 II,JST,KST,LST =  4  1  1  1 NREC =         1 INTLOC =  142
 II,JST,KST,LST =  5  1  1  1 NREC =         1 INTLOC = 1362
 II,JST,KST,LST =  6  1  1  1 NREC =         1 INTLOC = 1937
 II,JST,KST,LST =  7  1  1  1 NREC =         1 INTLOC = 6808
 II,JST,KST,LST =  8  1  1  1 NREC =         1 INTLOC = 8467
 II,JST,KST,LST =  9  1  1  1 NREC =         2 INTLOC = 5865
 II,JST,KST,LST = 10  1  1  1 NREC =         2 INTLOC = 9825
 II,JST,KST,LST = 11  1  1  1 NREC =         4 INTLOC = 5279
 II,JST,KST,LST = 12  1  1  1 NREC =         4 INTLOC =13891
 II,JST,KST,LST = 13  1  1  1 NREC =         5 INTLOC = 8546
 II,JST,KST,LST = 14  1  1  1 NREC =         6 INTLOC = 4338
 II,JST,KST,LST = 15  1  1  1 NREC =         7 INTLOC = 1333
 II,JST,KST,LST = 16  1  1  1 NREC =         7 INTLOC =14621
 II,JST,KST,LST = 17  1  1  1 NREC =         8 INTLOC =14309
 II,JST,KST,LST = 18  1  1  1 NREC =        10 INTLOC =  465
 II,JST,KST,LST = 19  1  1  1 NREC =        11 INTLOC = 3192
 II,JST,KST,LST = 20  1  1  1 NREC =        12 INTLOC =   87
 II,JST,KST,LST = 21  1  1  1 NREC =        16 INTLOC = 1102
 II,JST,KST,LST = 22  1  1  1 NREC =        22 INTLOC = 7345
 II,JST,KST,LST = 23  1  1  1 NREC =        35 INTLOC = 9940
 II,JST,KST,LST = 24  1  1  1 NREC =        49 INTLOC =14907
 II,JST,KST,LST = 25  1  1  1 NREC =        50 INTLOC = 5536
 II,JST,KST,LST = 26  1  1  1 NREC =        52 INTLOC =13131
 II,JST,KST,LST = 27  1  1  1 NREC =        58 INTLOC = 1267
 II,JST,KST,LST = 28  1  1  1 NREC =        68 INTLOC =11363
 SCHWARZ INEQUALITY TEST SKIPPED       39494 INTEGRAL BLOCKS.
 TOTAL NUMBER OF NONZERO TWO-ELECTRON INTEGRALS =             1325390
         89 INTEGRAL RECORDS WERE STORED ON DISK FILE  8.
  ...... END OF TWO-ELECTRON INTEGRALS .....
 STEP CPU TIME =     0.21 TOTAL CPU TIME =          0.3 (      0.0 MIN)
 TOTAL WALL CLOCK TIME=          0.3 SECONDS, CPU UTILIZATION IS    96.88%

          --------------------------
                 RHF SCF CALCULATION
          --------------------------

     NUCLEAR ENERGY =       762.7580520179
     MAXIT =   30     NPUNCH=    2
     EXTRAP=T  DAMP=F  SHIFT=F  RSTRCT=F  DIIS=F  DEM=F  SOSCF=T
     DENSITY MATRIX CONV=  1.00E-05
     SOSCF WILL OPTIMIZE     918 ORBITAL ROTATIONS, SOGTOL=   0.250
     MEMORY REQUIRED FOR RHF ITERS=     69953 WORDS.

 ITER EX DEM     TOTAL ENERGY        E CHANGE  DENSITY CHANGE     ORB. GRAD
   1  0  0    -5282.4686966006 -5282.4686966006  12.201715917   0.000000000
          ---------------START SECOND ORDER SCF---------------
   2  1  0    -5283.3662807947    -0.8975841941   0.617137041   0.058264461
   3  2  0    -5283.3301155002     0.0361652945   0.477416141   0.111626307
   4  3  0    -5283.4186212944    -0.0885057942   0.050038741   0.012889214
   5  4  0    -5283.4213033802    -0.0026820858   0.058170895   0.006448607
   6  5  0    -5283.4227086271    -0.0014052469   0.016351766   0.001614100
   7  6  0    -5283.4228667105    -0.0001580834   0.005630252   0.000657214
   8  7  0    -5283.4228930036    -0.0000262931   0.001814109   0.000320722
   9  8  0    -5283.4228965033    -0.0000034998   0.002159750   0.000232196
  10  9  0    -5283.4228982067    -0.0000017034   0.001712863   0.000132360
  11 10  0    -5283.4228988975    -0.0000006907   0.000879862   0.000052451
  12 11  0    -5283.4228991069    -0.0000002095   0.000201133   0.000028212
  13 12  0    -5283.4228991440    -0.0000000371   0.000058769   0.000012237
  14 13  0    -5283.4228991491    -0.0000000051   0.000023533   0.000004070
  15 14  0    -5283.4228991498    -0.0000000007   0.000009250   0.000001490
  16 15  0    -5283.4228991500    -0.0000000001   0.000005614   0.000000836

          -----------------
          DENSITY CONVERGED
          -----------------
     TIME TO FORM FOCK OPERATORS=       0.3 SECONDS (       0.0 SEC/ITER)
     TIME TO SOLVE SCF EQUATIONS=       0.1 SECONDS (       0.0 SEC/ITER)

 FINAL RHF ENERGY IS    -5283.4228991500 AFTER  16 ITERATIONS

          ------------
          EIGENVECTORS
          ------------

                      1          2          3          4          5
                 -484.8776  -484.6144   -63.7866   -63.5304   -57.9178
                     A          A          A          A          A   
    1  C  1  S   -0.000000  -0.000000  -0.000008  -0.000000  -0.000001
    2  C  1  S    0.000000   0.000000   0.000049   0.000000   0.000005
    3  C  1  X    0.000000   0.000000   0.000025   0.000000   0.000002
    4  C  1  Y   -0.000000   0.000000  -0.000008   0.000001  -0.000001
    5  C  1  Z    0.000000   0.000000   0.000044   0.000003   0.000003
    6  C  2  S    0.000000  -0.000000   0.000006  -0.000000   0.000000
    7  C  2  S   -0.000000   0.000000  -0.000062   0.000001  -0.000003
    8  C  2  X   -0.000000   0.000000  -0.000035   0.000001  -0.000003
    9  C  2  Y    0.000000  -0.000000   0.000030   0.000000   0.000000
   10  C  2  Z    0.000000  -0.000000   0.000033  -0.000001   0.000003
   11  C  3  S    0.000000  -0.000000   0.000007  -0.000001   0.000001
   12  C  3  S    0.000001   0.000000   0.000223   0.000005   0.000014
   13  C  3  X   -0.000001  -0.000000  -0.000121  -0.000003   0.000001
   14  C  3  Y   -0.000000  -0.000000  -0.000014  -0.000003  -0.000001
   15  C  3  Z    0.000000   0.000000   0.000063   0.000012   0.000009
   16  C  4  S    0.000003   0.000000   0.000471   0.000001   0.000051
   17  C  4  S   -0.000021  -0.000000  -0.003709  -0.000028  -0.000442
   18  C  4  X   -0.000011  -0.000000  -0.001945  -0.000004  -0.000228
   19  C  4  Y    0.000004  -0.000000   0.000665  -0.000083   0.000047
   20  C  4  Z   -0.000015  -0.000000  -0.002684  -0.000030  -0.000300
   21  C  5  S    0.000000   0.000000   0.000039   0.000001   0.000003
   22  C  5  S   -0.000000   0.000000  -0.000044   0.000017   0.000007
   23  C  5  X   -0.000000  -0.000000  -0.000006  -0.000006   0.000005
   24  C  5  Y    0.000000  -0.000000   0.000014  -0.000017  -0.000007
   25  C  5  Z   -0.000000  -0.000000  -0.000039  -0.000007   0.000003
   26  H  6  S   -0.000000  -0.000000  -0.000050  -0.000002  -0.000004
   27  H  7  S    0.000000   0.000000   0.000006   0.000000   0.000001
   28  H  8  S    0.000000  -0.000000   0.000009  -0.000000   0.000000
   29  H  9  S    0.000000   0.000000   0.000005   0.000000  -0.000001
   30  H 10  S   -0.000000  -0.000000  -0.000017  -0.000005  -0.000001
   31  H 11  S   -0.000003  -0.000000  -0.000486  -0.000010  -0.000021
   32  H 12  S   -0.000002  -0.000000  -0.000364  -0.000008  -0.000005
   33  H 13  S   -0.000000   0.000000  -0.000022   0.000000  -0.000002
   34  BR14  S    0.994693   0.000001   0.419596   0.000855  -0.000554
   35  BR14  S    0.014823  -0.000000  -1.059834  -0.002142   0.001410
   36  BR14  X   -0.000004  -0.000000   0.000703  -0.000013   0.565572
   37  BR14  Y    0.000002   0.000000  -0.000468   0.000046  -0.417034
   38  BR14  Z   -0.000004  -0.000000   0.000761  -0.000007   0.701402
   39  BR14  S   -0.073388  -0.000013   2.443244   0.003948  -0.002994
   40  BR14  X    0.000002   0.000000   0.000307   0.000056   0.010660
   41  BR14  Y   -0.000001  -0.000001  -0.000101  -0.000179  -0.007851
   42  BR14  Z    0.000003   0.000000   0.000384   0.000033   0.013221
   43  BR14 XX    0.032040   0.000006  -1.127630  -0.001783   0.001353
   44  BR14 YY    0.032039   0.000006  -1.127646  -0.001789   0.001371
   45  BR14 ZZ    0.032040   0.000006  -1.127628  -0.001783   0.001340
   46  BR14 XY   -0.000000   0.000000   0.000009   0.000002   0.000031
   47  BR14 XZ    0.000001  -0.000000   0.000001  -0.000000  -0.000049
   48  BR14 YZ   -0.000000   0.000000   0.000012   0.000001   0.000036
   49  BR14  S    0.000098  -0.000003   0.019455  -0.000500   0.000201
   50  BR14  X   -0.000008  -0.000001  -0.001450  -0.000247  -0.000907
   51  BR14  Y    0.000002   0.000004   0.000416   0.000787   0.000615
   52  BR14  Z   -0.000011  -0.000001  -0.001853  -0.000145  -0.001128
   53  BR15  S   -0.000000   0.994691  -0.000805   0.419638  -0.000005
   54  BR15  S   -0.000000   0.014826   0.002052  -1.059915   0.000011
   55  BR15  X    0.000000  -0.000000   0.000015   0.000098   0.000002
   56  BR15  Y   -0.000000   0.000001  -0.000045  -0.000339  -0.000012
   57  BR15  Z    0.000000  -0.000000   0.000009   0.000040   0.000000
   58  BR15  S   -0.000012  -0.073379  -0.005717   2.441627   0.000049
   59  BR15  X   -0.000000   0.000000  -0.000056   0.000013   0.000003
   60  BR15  Y    0.000001  -0.000000   0.000173  -0.000045  -0.000015
   61  BR15  Z   -0.000000   0.000000  -0.000035   0.000007   0.000000
   62  BR15 XX    0.000006   0.032035   0.002678  -1.126856  -0.000026
   63  BR15 YY    0.000006   0.032036   0.002672  -1.126899  -0.000025
   64  BR15 ZZ    0.000006   0.032035   0.002678  -1.126853  -0.000026
   65  BR15 XY    0.000000  -0.000000   0.000002   0.000015  -0.000000
   66  BR15 XZ   -0.000000   0.000000  -0.000000  -0.000002   0.000000
   67  BR15 YZ    0.000000  -0.000000   0.000001   0.000006  -0.000000
   68  BR15  S   -0.000003   0.000087  -0.000571   0.017511   0.000046
   69  BR15  X    0.000001  -0.000000   0.000247  -0.000029  -0.000013
   70  BR15  Y   -0.000004   0.000001  -0.000757   0.000094   0.000067
   71  BR15  Z    0.000001  -0.000000   0.000153  -0.000017  -0.000002

                      6          7          8          9         10
                  -57.9152   -57.9150   -57.6613   -57.6595   -57.6595
                     A          A          A          A          A   
    1  C  1  S    0.000000  -0.000000   0.000000   0.000000   0.000000
    2  C  1  S    0.000000   0.000001  -0.000000  -0.000000  -0.000000
    3  C  1  X   -0.000000  -0.000000  -0.000000  -0.000000   0.000000
    4  C  1  Y   -0.000003  -0.000001  -0.000000  -0.000000   0.000000
    5  C  1  Z   -0.000004   0.000001  -0.000000   0.000000  -0.000000
    6  C  2  S    0.000001   0.000000   0.000000   0.000000   0.000000
    7  C  2  S   -0.000007  -0.000003  -0.000000  -0.000000  -0.000000
    8  C  2  X   -0.000003   0.000001  -0.000000  -0.000000  -0.000000
    9  C  2  Y    0.000003   0.000003   0.000000   0.000000   0.000000
   10  C  2  Z    0.000001   0.000001   0.000000  -0.000000  -0.000000
   11  C  3  S   -0.000000  -0.000001   0.000000  -0.000000  -0.000000
   12  C  3  S    0.000022   0.000027  -0.000000   0.000001   0.000001
   13  C  3  X   -0.000005  -0.000006   0.000000  -0.000001  -0.000000
   14  C  3  Y    0.000006   0.000006   0.000000  -0.000000  -0.000000
   15  C  3  Z   -0.000010  -0.000007  -0.000001   0.000000   0.000001
   16  C  4  S    0.000009   0.000001  -0.000000  -0.000001   0.000000
   17  C  4  S   -0.000077  -0.000007   0.000003   0.000006  -0.000000
   18  C  4  X   -0.000024   0.000102   0.000000   0.000003  -0.000002
   19  C  4  Y    0.000147  -0.000012   0.000010  -0.000002  -0.000000
   20  C  4  Z   -0.000063  -0.000055   0.000003   0.000003   0.000001
   21  C  5  S   -0.000001   0.000001  -0.000000   0.000000  -0.000000
   22  C  5  S   -0.000022   0.000001  -0.000002  -0.000000   0.000000
   23  C  5  X    0.000013  -0.000010   0.000001  -0.000000   0.000000
   24  C  5  Y    0.000026  -0.000006   0.000002   0.000000   0.000000
   25  C  5  Z    0.000020   0.000004   0.000001  -0.000000  -0.000000
   26  H  6  S    0.000003  -0.000004   0.000000  -0.000000   0.000000
   27  H  7  S    0.000000  -0.000000  -0.000000  -0.000000  -0.000000
   28  H  8  S    0.000001   0.000000   0.000000   0.000000   0.000000
   29  H  9  S    0.000001   0.000002  -0.000000   0.000000   0.000000
   30  H 10  S   -0.000002  -0.000005   0.000000  -0.000001  -0.000000
   31  H 11  S   -0.000029  -0.000039   0.000000  -0.000001  -0.000001
   32  H 12  S   -0.000013   0.000034   0.000000  -0.000002   0.000001
   33  H 13  S    0.000002   0.000005  -0.000000   0.000000  -0.000000
   34  BR14  S   -0.000024  -0.000027  -0.000007   0.000001  -0.000000
   35  BR14  S    0.000062   0.000068   0.000015  -0.000001   0.000000
   36  BR14  X    0.338199   0.742676   0.000009   0.000002   0.000004
   37  BR14  Y    0.896493  -0.090634  -0.000029   0.000003   0.000000
   38  BR14  Z    0.260317  -0.652740   0.000006   0.000004  -0.000003
   39  BR14  S   -0.000081  -0.000163   0.000071  -0.000006   0.000001
   40  BR14  X    0.006337   0.013896  -0.000006  -0.000002  -0.000003
   41  BR14  Y    0.016781  -0.001696   0.000020  -0.000002  -0.000000
   42  BR14  Z    0.004881  -0.012215  -0.000004  -0.000003   0.000002
   43  BR14 XX    0.000011   0.000022  -0.000037   0.000003  -0.000000
   44  BR14 YY    0.000075   0.000073  -0.000037   0.000003  -0.000000
   45  BR14 ZZ    0.000015   0.000130  -0.000038   0.000003  -0.000000
   46  BR14 XY   -0.000029   0.000023  -0.000000  -0.000000  -0.000000
   47  BR14 XZ   -0.000026  -0.000007   0.000000  -0.000000  -0.000000
   48  BR14 YZ   -0.000035  -0.000013  -0.000000  -0.000000   0.000000
   49  BR14  S    0.000056  -0.000010   0.000064  -0.000007   0.000001
   50  BR14  X   -0.000478  -0.000974   0.000029   0.000008   0.000011
   51  BR14  Y   -0.001177   0.000119  -0.000092   0.000009   0.000001
   52  BR14  Z   -0.000385   0.000866   0.000018   0.000012  -0.000008
   53  BR15  S    0.000005  -0.000001   0.000157  -0.000001  -0.000001
   54  BR15  S   -0.000011   0.000003  -0.000399   0.000003   0.000003
   55  BR15  X   -0.000005  -0.000001  -0.264509   0.544407   0.787058
   56  BR15  Y    0.000011  -0.000003   0.950347   0.245367   0.149680
   57  BR15  Z   -0.000003   0.000002  -0.112430   0.793236  -0.586467
   58  BR15  S   -0.000050   0.000014   0.000889  -0.000007  -0.000007
   59  BR15  X   -0.000006  -0.000001  -0.004979   0.010218   0.014772
   60  BR15  Y    0.000014  -0.000004   0.017889   0.004605   0.002809
   61  BR15  Z   -0.000004   0.000003  -0.002117   0.014888  -0.011007
   62  BR15 XX    0.000026  -0.000007  -0.000414  -0.000002  -0.000004
   63  BR15 YY    0.000026  -0.000007  -0.000387   0.000011   0.000008
   64  BR15 ZZ    0.000026  -0.000007  -0.000416   0.000000   0.000005
   65  BR15 XY    0.000000  -0.000000  -0.000010   0.000008   0.000013
   66  BR15 XZ   -0.000000   0.000000   0.000001  -0.000005   0.000001
   67  BR15 YZ    0.000000  -0.000000  -0.000004   0.000014  -0.000011
   68  BR15  S   -0.000046   0.000013  -0.000002   0.000000  -0.000000
   69  BR15  X    0.000028   0.000004   0.000351  -0.000712  -0.001029
   70  BR15  Y   -0.000061   0.000019  -0.001260  -0.000320  -0.000196
   71  BR15  Z    0.000017  -0.000013   0.000150  -0.001037   0.000767

                     11         12         13         14         15
                  -11.1179   -11.1111   -11.0990   -11.0800   -11.0787
                     A          A          A          A          A   
    1  C  1  S   -0.001842  -0.005763   0.991828   0.001414   0.006960
    2  C  1  S   -0.000069  -0.006004   0.038031   0.000832  -0.005631
    3  C  1  X   -0.000085  -0.003968   0.000597  -0.000356   0.002217
    4  C  1  Y    0.000112   0.001141  -0.000496  -0.000320   0.003651
    5  C  1  Z   -0.000074   0.000931  -0.000162  -0.000182   0.000516
    6  C  2  S   -0.000693  -0.001869  -0.005787  -0.111097   0.985656
    7  C  2  S    0.000201  -0.000020  -0.006144  -0.010047   0.036675
    8  C  2  X    0.000002  -0.000394  -0.002038  -0.002760  -0.000060
    9  C  2  Y   -0.000081   0.000055  -0.003751   0.003116   0.000448
   10  C  2  Z    0.000050   0.000235  -0.000552  -0.000820  -0.000232
   11  C  3  S   -0.004469  -0.001378  -0.002128   0.985639   0.112084
   12  C  3  S   -0.005459   0.000165   0.000030   0.037334  -0.001687
   13  C  3  X   -0.003578   0.000108  -0.000124  -0.000657   0.002821
   14  C  3  Y   -0.001713  -0.000206  -0.000089   0.000406  -0.003030
   15  C  3  Z    0.000397   0.000083  -0.000142  -0.000176   0.000838
   16  C  4  S    0.991479  -0.025416   0.001741   0.005346   0.001306
   17  C  4  S    0.037637  -0.008153   0.000191  -0.005121  -0.000353
   18  C  4  X    0.000381   0.000852  -0.000056   0.003622   0.000415
   19  C  4  Y    0.001671  -0.004475  -0.000021   0.001769   0.000178
   20  C  4  Z   -0.000222   0.000954  -0.000089  -0.000401   0.000011
   21  C  5  S    0.026137   0.991916   0.006719   0.001369   0.002238
   22  C  5  S   -0.006745   0.035659  -0.006089   0.000152  -0.000008
   23  C  5  X   -0.001176  -0.000255   0.004214   0.000118   0.000206
   24  C  5  Y    0.004528  -0.001688  -0.001323   0.000008   0.000292
   25  C  5  Z   -0.001037   0.000231  -0.000939  -0.000038   0.000063
   26  H  6  S    0.000005  -0.000132  -0.006962  -0.000011   0.000024
   27  H  7  S   -0.000075   0.000052  -0.006930  -0.000133   0.000065
   28  H  8  S   -0.000007  -0.000022   0.000117   0.000872  -0.006894
   29  H  9  S   -0.000066  -0.000162   0.000162   0.000906  -0.006843
   30  H 10  S    0.000089  -0.000030  -0.000082  -0.006865  -0.000645
   31  H 11  S    0.000141  -0.000050   0.000042  -0.006844  -0.000691
   32  H 12  S   -0.006603   0.000083  -0.000079   0.000077  -0.000003
   33  H 13  S    0.000017  -0.006701   0.000071  -0.000091  -0.000107
   34  BR14  S    0.000036   0.000004  -0.000000   0.000002   0.000001
   35  BR14  S   -0.000139  -0.000005   0.000001  -0.000002  -0.000001
   36  BR14  X    0.000083   0.000003  -0.000002   0.000008   0.000001
   37  BR14  Y   -0.000035  -0.000012   0.000001   0.000002   0.000001
   38  BR14  Z    0.000095   0.000001  -0.000000   0.000003   0.000002
   39  BR14  S   -0.000732  -0.000025   0.000008  -0.000023  -0.000011
   40  BR14  X   -0.000275  -0.000013   0.000006  -0.000027  -0.000003
   41  BR14  Y    0.000118   0.000044  -0.000004  -0.000007  -0.000003
   42  BR14  Z   -0.000314  -0.000005   0.000001  -0.000011  -0.000006
   43  BR14 XX    0.000290   0.000032  -0.000005   0.000025   0.000006
   44  BR14 YY    0.000324   0.000029  -0.000005   0.000022   0.000006
   45  BR14 ZZ    0.000267   0.000034  -0.000005   0.000024   0.000005
   46  BR14 XY    0.000019  -0.000002  -0.000000  -0.000001  -0.000000
   47  BR14 XZ   -0.000060   0.000004   0.000000   0.000004  -0.000000
   48  BR14 YZ    0.000024  -0.000002  -0.000000   0.000000   0.000000
   49  BR14  S   -0.004657   0.000054   0.000028   0.000027  -0.000041
   50  BR14  X    0.003114  -0.000043  -0.000036   0.000016   0.000021
   51  BR14  Y   -0.001271  -0.000180   0.000023   0.000023   0.000015
   52  BR14  Z    0.003704  -0.000120  -0.000003  -0.000005   0.000043
   53  BR15  S   -0.000000   0.000000  -0.000000  -0.000000  -0.000000
   54  BR15  S    0.000000  -0.000000   0.000000   0.000000   0.000000
   55  BR15  X   -0.000001   0.000000   0.000000  -0.000000  -0.000000
   56  BR15  Y   -0.000000   0.000000   0.000000   0.000000   0.000000
   57  BR15  Z   -0.000002   0.000000  -0.000000  -0.000000  -0.000000
   58  BR15  S    0.000001  -0.000003   0.000000   0.000002   0.000000
   59  BR15  X    0.000004  -0.000000  -0.000000   0.000002   0.000000
   60  BR15  Y    0.000000  -0.000000  -0.000000  -0.000001  -0.000000
   61  BR15  Z    0.000006  -0.000001   0.000000   0.000000   0.000000
   62  BR15 XX   -0.000001   0.000002  -0.000000  -0.000001  -0.000000
   63  BR15 YY   -0.000001   0.000002  -0.000000  -0.000001  -0.000000
   64  BR15 ZZ   -0.000001   0.000002  -0.000000  -0.000001  -0.000000
   65  BR15 XY    0.000000   0.000000  -0.000000  -0.000000  -0.000000
   66  BR15 XZ    0.000000  -0.000000   0.000000   0.000000   0.000000
   67  BR15 YZ   -0.000000   0.000000  -0.000000  -0.000000  -0.000000
   68  BR15  S    0.000001  -0.000007   0.000001   0.000007   0.000001
   69  BR15  X   -0.000020   0.000004   0.000000  -0.000009  -0.000000
   70  BR15  Y   -0.000008  -0.000005   0.000001   0.000006   0.000001
   71  BR15  Z   -0.000033   0.000004  -0.000000  -0.000002  -0.000000

                     16         17         18         19         20
                   -9.2736    -9.0346    -6.9697    -6.9549    -6.9538
                     A          A          A          A          A   
    1  C  1  S   -0.000013  -0.000000   0.000020  -0.000006   0.000013
    2  C  1  S    0.000055   0.000001  -0.000097   0.000014  -0.000063
    3  C  1  X    0.000028  -0.000000  -0.000056   0.000009  -0.000013
    4  C  1  Y   -0.000007   0.000001   0.000011   0.000061   0.000017
    5  C  1  Z    0.000060   0.000002  -0.000105   0.000100  -0.000018
    6  C  2  S    0.000006  -0.000000  -0.000007  -0.000014   0.000006
    7  C  2  S   -0.000074   0.000002   0.000086   0.000166   0.000061
    8  C  2  X   -0.000033   0.000002   0.000062   0.000062  -0.000040
    9  C  2  Y    0.000043   0.000001  -0.000035  -0.000087  -0.000070
   10  C  2  Z    0.000046  -0.000001  -0.000083  -0.000034  -0.000044
   11  C  3  S    0.000049  -0.000003  -0.000066  -0.000042  -0.000023
   12  C  3  S    0.000230   0.000009  -0.000277  -0.000405  -0.000557
   13  C  3  X   -0.000219  -0.000001   0.000137   0.000278   0.000266
   14  C  3  Y    0.000002  -0.000003  -0.000024  -0.000199  -0.000104
   15  C  3  Z   -0.000007   0.000015  -0.000004   0.000320   0.000247
   16  C  4  S    0.000652  -0.000002  -0.001224  -0.000132  -0.000060
   17  C  4  S   -0.004951  -0.000016   0.012172   0.001567   0.000325
   18  C  4  X   -0.002377   0.000005   0.005703   0.000257  -0.002562
   19  C  4  Y    0.000795  -0.000109  -0.001258  -0.003734   0.000255
   20  C  4  Z   -0.003341  -0.000025   0.007610   0.001150   0.001549
   21  C  5  S    0.000093   0.000002  -0.000147   0.000107  -0.000031
   22  C  5  S   -0.000070   0.000020  -0.000078   0.000367   0.000017
   23  C  5  X   -0.000075  -0.000003   0.000086  -0.000387   0.000183
   24  C  5  Y    0.000011  -0.000013   0.000158  -0.000522   0.000126
   25  C  5  Z   -0.000126   0.000006   0.000195  -0.000586  -0.000047
   26  H  6  S   -0.000071  -0.000006   0.000104  -0.000087   0.000104
   27  H  7  S    0.000006   0.000001  -0.000011  -0.000004   0.000005
   28  H  8  S    0.000008  -0.000000  -0.000005  -0.000020  -0.000006
   29  H  9  S    0.000008  -0.000000   0.000006  -0.000026  -0.000040
   30  H 10  S   -0.000019  -0.000008   0.000019   0.000029   0.000113
   31  H 11  S   -0.000647  -0.000015   0.000585   0.000772   0.001105
   32  H 12  S   -0.000650  -0.000003   0.000562   0.000502  -0.001186
   33  H 13  S   -0.000029  -0.000000   0.000039  -0.000061  -0.000111
   34  BR14  S    0.170438   0.000133   0.001829   0.000046   0.000070
   35  BR14  S   -0.524665  -0.000400  -0.005675  -0.000146  -0.000215
   36  BR14  X    0.002461  -0.000004  -0.240709  -0.130085  -0.315726
   37  BR14  Y   -0.001535   0.000024   0.158742  -0.384789   0.037289
   38  BR14  Z    0.002785   0.000001  -0.301870  -0.098466   0.271355
   39  BR14  S    2.305880   0.001437   0.023654   0.000342   0.000993
   40  BR14  X   -0.006141   0.000025   0.613965   0.331938   0.805692
   41  BR14  Y    0.003858  -0.000107  -0.404921   0.981905  -0.095155
   42  BR14  Z   -0.006937   0.000005   0.769968   0.251246  -0.692462
   43  BR14 XX   -0.551374  -0.000272  -0.005593  -0.001276  -0.003193
   44  BR14 YY   -0.551818  -0.000272  -0.003926   0.002285  -0.000363
   45  BR14 ZZ   -0.550750  -0.000272  -0.006756  -0.001117   0.002833
   46  BR14 XY   -0.000826  -0.000000   0.001806  -0.001692   0.001275
   47  BR14 XZ    0.001708   0.000000  -0.003621  -0.001435  -0.000473
   48  BR14 YZ   -0.001071  -0.000001   0.002158  -0.002079  -0.000686
   49  BR14  S    0.031619  -0.000786  -0.006413  -0.001206   0.000158
   50  BR14  X   -0.002401  -0.000329   0.031174   0.014670   0.033934
   51  BR14  Y    0.000847   0.001105  -0.019468   0.041549  -0.004033
   52  BR14  Z   -0.003012  -0.000174   0.039110   0.011447  -0.029304
   53  BR15  S   -0.000078   0.170501   0.000062  -0.000069   0.000018
   54  BR15  S    0.000247  -0.524857  -0.000185   0.000204  -0.000053
   55  BR15  X    0.000010   0.000278  -0.000119   0.000296   0.000046
   56  BR15  Y   -0.000029  -0.000935   0.000627  -0.000669   0.000200
   57  BR15  Z    0.000006   0.000119  -0.000005   0.000180  -0.000134
   58  BR15  S   -0.001395   2.306148   0.000408  -0.000448   0.000117
   59  BR15  X   -0.000039  -0.000700   0.000288  -0.000722  -0.000111
   60  BR15  Y    0.000116   0.002354  -0.001522   0.001632  -0.000487
   61  BR15  Z   -0.000025  -0.000300   0.000011  -0.000437   0.000326
   62  BR15 XX    0.000404  -0.551881  -0.000008   0.000008  -0.000002
   63  BR15 YY    0.000401  -0.550236  -0.000007   0.000008  -0.000002
   64  BR15 ZZ    0.000404  -0.551992  -0.000008   0.000008  -0.000002
   65  BR15 XY    0.000001  -0.000572   0.000000   0.000000   0.000000
   66  BR15 XZ   -0.000000   0.000071  -0.000000  -0.000000   0.000000
   67  BR15 YZ    0.000001  -0.000241   0.000000   0.000000  -0.000000
   68  BR15  S   -0.000759   0.029579  -0.001334   0.001465  -0.000385
   69  BR15  X    0.000326  -0.000093   0.000376  -0.000857  -0.000129
   70  BR15  Y   -0.000985   0.000303  -0.001956   0.001931  -0.000572
   71  BR15  Z    0.000207  -0.000047   0.000025  -0.000526   0.000385

                     21         22         23         24         25
                   -6.7271    -6.7184    -6.7184    -2.3555    -2.3504
                     A          A          A          A          A   
    1  C  1  S   -0.000001  -0.000000  -0.000000   0.000012   0.000004
    2  C  1  S    0.000001   0.000000   0.000001  -0.000087   0.000068
    3  C  1  X    0.000001   0.000000   0.000000  -0.000039  -0.000012
    4  C  1  Y    0.000002   0.000000  -0.000001   0.000076  -0.000039
    5  C  1  Z    0.000006  -0.000001   0.000000  -0.000015  -0.000137
    6  C  2  S   -0.000001  -0.000000  -0.000000  -0.000034   0.000020
    7  C  2  S    0.000004   0.000003   0.000002   0.000102  -0.000141
    8  C  2  X    0.000003   0.000000   0.000001   0.000233  -0.000133
    9  C  2  Y   -0.000001  -0.000003  -0.000001   0.000115   0.000008
   10  C  2  Z   -0.000002   0.000002   0.000001  -0.000082   0.000060
   11  C  3  S   -0.000004   0.000003   0.000003   0.000071  -0.000001
   12  C  3  S    0.000006  -0.000020  -0.000016  -0.000898   0.001364
   13  C  3  X   -0.000001   0.000012   0.000007  -0.001067   0.000683
   14  C  3  Y   -0.000005   0.000002   0.000006   0.000253  -0.000126
   15  C  3  Z    0.000030  -0.000006  -0.000017  -0.001543  -0.000239
   16  C  4  S   -0.000004   0.000025  -0.000001  -0.006966   0.001802
   17  C  4  S   -0.000028  -0.000163   0.000006   0.029663  -0.007286
   18  C  4  X    0.000013  -0.000085   0.000040   0.018272  -0.003371
   19  C  4  Y   -0.000254   0.000043   0.000002  -0.002965   0.012064
   20  C  4  Z   -0.000045  -0.000076  -0.000031   0.022244  -0.005668
   21  C  5  S    0.000005  -0.000002   0.000000  -0.000029  -0.000192
   22  C  5  S    0.000041   0.000010  -0.000002  -0.001575  -0.001801
   23  C  5  X   -0.000019   0.000008  -0.000002  -0.001438   0.000527
   24  C  5  Y   -0.000039  -0.000004   0.000000   0.000354   0.001312
   25  C  5  Z   -0.000019   0.000007   0.000003  -0.001605   0.000894
   26  H  6  S   -0.000007   0.000000  -0.000001  -0.000032   0.000039
   27  H  7  S    0.000001  -0.000000   0.000000  -0.000032  -0.000005
   28  H  8  S   -0.000000  -0.000001  -0.000000   0.000013   0.000005
   29  H  9  S    0.000000  -0.000001  -0.000001   0.000059   0.000000
   30  H 10  S   -0.000011   0.000019   0.000005   0.000022  -0.000044
   31  H 11  S   -0.000011   0.000033   0.000039  -0.000089  -0.000529
   32  H 12  S   -0.000004   0.000050  -0.000020  -0.002797   0.000589
   33  H 13  S    0.000000  -0.000002   0.000002   0.000122   0.000064
   34  BR14  S    0.000092  -0.000007   0.000001  -0.000216  -0.000068
   35  BR14  S   -0.000273   0.000022  -0.000003   0.000555   0.000246
   36  BR14  X   -0.000412  -0.000099  -0.000176  -0.000603   0.000320
   37  BR14  Y    0.001355  -0.000145  -0.000018   0.000489   0.001443
   38  BR14  Z   -0.000236  -0.000173   0.000122  -0.000813   0.000206
   39  BR14  S    0.000599  -0.000042   0.000007  -0.004182  -0.000591
   40  BR14  X    0.001085   0.000262   0.000464   0.001402  -0.000787
   41  BR14  Y   -0.003572   0.000382   0.000047  -0.001222  -0.003870
   42  BR14  Z    0.000621   0.000455  -0.000322   0.001910  -0.000470
   43  BR14 XX   -0.000011  -0.000000  -0.000001   0.020242  -0.309798
   44  BR14 YY   -0.000004  -0.000000  -0.000000  -0.319590   0.613977
   45  BR14 ZZ   -0.000011  -0.000001   0.000001   0.302157  -0.303765
   46  BR14 XY    0.000005  -0.000001  -0.000001  -0.382434  -0.423862
   47  BR14 XZ   -0.000005  -0.000001  -0.000000   0.710263  -0.331125
[...]

  1   C            X  0.14627788 -0.06406659 -0.03535349 -0.02758470  0.01837400
                   Y  0.02998998 -0.03259061  0.01993434 -0.05258054 -0.07142930
                   Z -0.02949655 -0.00719488  0.03801611 -0.01474235 -0.03012856
  2   C            X -0.05439563 -0.02067055  0.01227223  0.02128893 -0.00820556
                   Y -0.04618454  0.01716883 -0.12230167  0.02377264  0.00217430
                   Z -0.01547454 -0.00136816 -0.08419587  0.00848548  0.01052889
  3   C            X  0.05924518  0.13082082 -0.02636950 -0.07653931 -0.00312876
                   Y  0.02506102 -0.01228324  0.04151923  0.01946743 -0.00423014
                   Z -0.00480673 -0.01039347  0.03252509  0.05047652 -0.00400320
  4   C            X -0.02364394 -0.09283975 -0.03407445 -0.00834108  0.00177321
                   Y -0.04183788 -0.06663515 -0.02439556 -0.07132528  0.00849749
                   Z -0.05765995 -0.03832567 -0.02410961 -0.07301961  0.00319163
  5   C            X -0.08518678  0.03307874  0.04018347 -0.04824069  0.00429507
                   Y  0.06847402  0.05737196 -0.01852679  0.11313360 -0.01210757
                   Z  0.06780755  0.01061126 -0.02386786  0.06629802 -0.00497957
  6   H            X -0.25270032  0.17241373  0.10321980  0.20567325 -0.28498666
                   Y -0.09238917  0.06385848  0.13473276  0.05305283  0.57760371
                   Z  0.02044744 -0.04422425  0.00740465 -0.05565566 -0.17198502
  7   H            X -0.28606609  0.20592266  0.00519500  0.18725342 -0.04482161
                   Y -0.13739565  0.10792601  0.02831948  0.04942457  0.28453910
                   Z  0.06358803 -0.01140542  0.01346421 -0.03209746  0.58442108
  8   H            X -0.08125354 -0.03303850  0.02960000  0.04444648  0.04167232
                   Y -0.01253755  0.18540715  0.30444618 -0.05439737  0.05732304
                   Z  0.07941114  0.16296760  0.18137914 -0.12027543 -0.12302375
  9   H            X -0.01179236  0.02760731  0.01361146  0.05956676  0.14199318
                   Y  0.14740059 -0.16733110  0.44113502 -0.05537956 -0.01581327
                   Z  0.12091080 -0.12523383  0.29379246 -0.04768336  0.00076696
 10   H            X -0.06400275 -0.34372467  0.21979306  0.29248749  0.00616089
                   Y -0.00345441  0.10692418  0.01557655 -0.03354895  0.02061677
                   Z  0.03168537  0.20495712 -0.05973875 -0.09675090  0.00135400
 11   H            X -0.14770574 -0.19102985  0.03426041  0.29985436  0.00573106
                   Y  0.05669374  0.02850782  0.04569433 -0.02556652 -0.00415922
                   Z  0.10459731  0.08564275  0.09660812 -0.12273081  0.01927410
 12   H            X  0.14508222  0.17496082  0.16505348  0.23343284 -0.00994881
                   Y -0.13237975  0.14846435  0.15014296  0.01314738 -0.00949867
                   Z  0.06441373  0.11900860  0.09009640  0.06861649 -0.00084823
 13   H            X  0.06436467  0.03332616 -0.08036348  0.20325555 -0.00332090
                   Y -0.11395154  0.07795107  0.13132174 -0.16474685 -0.00846933
                   Z -0.10310474  0.02630035  0.08950341 -0.16423079  0.00031101
 14   BR           X  0.00175039  0.00162880  0.00033129  0.00201804 -0.00014274
                   Y -0.00188895 -0.00170326 -0.00019118 -0.00279869  0.00025882
                   Z  0.00113870  0.00194573  0.00032387  0.00186422 -0.00014855
 15   BR           X -0.00008443 -0.00014212 -0.00000319 -0.00030625  0.00003351
                   Y  0.00016867  0.00027891 -0.00001049  0.00064592 -0.00005682
                   Z  0.00000962 -0.00018739 -0.00005143 -0.00027655  0.00004709

 TRANS. SAYVETZ    X -0.00000033 -0.00000067 -0.00000015  0.00000009  0.00000002
                   Y  0.00000273 -0.00000035  0.00000025  0.00000120  0.00000063
                   Z -0.00000143 -0.00000174 -0.00000036 -0.00000160  0.00000075
               TOTAL  0.00000309  0.00000189  0.00000046  0.00000200  0.00000098

   ROT. SAYVETZ    X  0.07481461  0.09032568  0.03629719  0.10434078 -0.00829429
                   Y  0.00936519 -0.07377144 -0.01998352  0.03175246  0.00006414
                   Z -0.03810642 -0.09190974 -0.03190854 -0.04316939  0.00480022
               TOTAL  0.08448095  0.14848689  0.05229706  0.11729797  0.00958340

                           36          37          38          39          40
       FREQUENCY:      1798.96     1819.91     3570.86     3623.35     3634.79  
        SYMMETRY:         A           A           A           A           A   
    REDUCED MASS:      1.10052     1.12034     1.06666     1.06687     1.06890
    IR INTENSITY:      0.02636     0.08204     0.03619     0.00562     0.00136

  1   C            X  0.00243849  0.00167312  0.02390412 -0.00057795  0.00005122
                   Y -0.00643921  0.02157632 -0.06476950  0.00013481  0.00476176
                   Z -0.00354743  0.00891549 -0.01542267  0.00034285 -0.00373077
  2   C            X  0.02045453 -0.07048756 -0.00160980  0.00934898 -0.05418425
                   Y  0.01698560 -0.02430469  0.00219012  0.00458010 -0.02425916
                   Z -0.00761117  0.04066134  0.00110009 -0.00291703  0.03823739
  3   C            X -0.03124625 -0.00497199 -0.00003285 -0.02600404 -0.00265427
                   Y -0.04859709 -0.02354723 -0.00029263 -0.03639581 -0.00470645
                   Z -0.05824951 -0.02792884 -0.00037805 -0.05359288 -0.01146698
  4   C            X  0.00472932  0.00282080 -0.00007377 -0.00184331 -0.00182499
                   Y -0.00065453  0.00203958  0.00046412  0.00212383  0.00061050
                   Z -0.00456521  0.00124341 -0.00080183  0.00603016  0.00326515
  5   C            X -0.00399386  0.00026865  0.00165336  0.00045200 -0.00029411
                   Y  0.00526210 -0.00134465  0.00107271 -0.00026191 -0.00025932
                   Z  0.00423139 -0.00107895  0.00032359 -0.00004401  0.00000159
  6   H            X -0.00582580  0.03255361  0.03022155  0.00061081 -0.00045417
                   Y  0.02047840 -0.12768880  0.12797116  0.00003065  0.00627188
                   Z -0.01015720  0.04472930  0.55016299 -0.00163686  0.01969602
  7   H            X  0.00094161 -0.01099192 -0.32243713  0.00118831  0.02237705
                   Y  0.00882591 -0.06507937  0.60134553 -0.00338544 -0.03575906
                   Z  0.02016382 -0.11382520 -0.38109596  0.00160995  0.02389452
  8   H            X -0.06488283  0.14794728  0.02630002 -0.11028581  0.59287392
                   Y -0.15137915  0.32621234 -0.00544804  0.02158380 -0.12635031
                   Z  0.16793412 -0.49162355  0.00572492 -0.03120719  0.16768020
  9   H            X -0.23700393  0.60726199  0.00185445 -0.00142371  0.00029422
                   Y -0.00158329 -0.03436241  0.01078857 -0.05501891  0.39783017
                   Z -0.02331833  0.03751209 -0.01014756  0.08819526 -0.59040928
 10   H            X  0.13204407  0.02992403  0.00202576  0.22924583  0.04341955
                   Y  0.60445217  0.21956844 -0.00184120 -0.21804915 -0.04010831
                   Z  0.10242589  0.04301206  0.00480780  0.64370085  0.11171953
 11   H            X  0.24453638  0.05888461  0.00032150  0.05820743  0.00590929
                   Y -0.03549805 -0.01601450  0.00888813  0.61849436  0.08175869
                   Z  0.57659522  0.22402346 -0.00014092 -0.04375478 -0.00610058
 12   H            X -0.01067487 -0.01611141 -0.00525510  0.04198794  0.02777849
                   Y -0.01374672 -0.00548601  0.00152115 -0.01034085 -0.00557622
                   Z -0.01637341 -0.01194802  0.00919446 -0.06080825 -0.03880925
 13   H            X  0.01402241 -0.00579168 -0.01667415 -0.00068987  0.00751377
                   Y -0.01517969  0.00801106 -0.01485947  0.00071167  0.00568868
                   Z -0.01028212  0.00507185 -0.00106212 -0.00026276  0.00000006
 14   BR           X  0.00023187 -0.00002256  0.00000358  0.00003961  0.00002235
                   Y -0.00028189 -0.00002753  0.00000904  0.00000882  0.00000207
                   Z  0.00030694  0.00006324  0.00004934  0.00002200 -0.00001144
 15   BR           X -0.00000779 -0.00000170 -0.00000649 -0.00000237 -0.00000093
                   Y  0.00004987  0.00002017  0.00001576  0.00000425  0.00000117
                   Z -0.00000789 -0.00002071 -0.00000735 -0.00000081 -0.00000001

 TRANS. SAYVETZ    X  0.00000044 -0.00000033  0.00000034 -0.00000008  0.00000094
                   Y -0.00000008  0.00000015  0.00000019 -0.00000019 -0.00000062
                   Z -0.00000009 -0.00000004 -0.00000031  0.00000007  0.00000026
               TOTAL  0.00000046  0.00000036  0.00000050  0.00000021  0.00000116

   ROT. SAYVETZ    X  0.00236873 -0.00210169  0.00001985 -0.00086329 -0.00044304
                   Y  0.00580411  0.00166100  0.00006915 -0.00111384 -0.00074704
                   Z  0.00177557  0.00214559  0.00002170  0.00003733 -0.00008811
               TOTAL  0.00651546  0.00343214  0.00007515  0.00140972  0.00087300

                           41          42          43          44          45
       FREQUENCY:      3662.63     3677.50     3721.31     3744.05     3752.50  
        SYMMETRY:         A           A           A           A           A   
    REDUCED MASS:      1.09390     1.10695     1.09805     1.11338     1.11159
    IR INTENSITY:      0.59983     0.17390    10.03403     0.00477     0.00512

  1   C            X  0.00052089 -0.02165164  0.00339030 -0.00013125 -0.00027243
                   Y  0.00089133  0.01912690 -0.00102278  0.00066464  0.00097803
                   Z  0.00164449 -0.08533498 -0.00440950  0.00084088 -0.00107155
  2   C            X -0.00196843  0.00410518  0.00019845 -0.01438793 -0.05521291
                   Y -0.00131661  0.00040854  0.00143398  0.00936358  0.04037173
                   Z  0.00221474  0.00029803 -0.00183193 -0.01283387 -0.05828688
  3   C            X -0.00406661  0.00024365  0.00083992  0.01021336 -0.00252798
                   Y -0.00286429 -0.00008045 -0.00138049 -0.07526387  0.01603070
                   Z -0.00452150  0.00094474  0.00221717  0.04883005 -0.01215012
  4   C            X  0.04748429  0.00079921 -0.00436689  0.00114747  0.00065255
                   Y -0.01055821 -0.00020828  0.00475252  0.00007072 -0.00023836
                   Z -0.06830118 -0.00206207  0.00824433 -0.00094891 -0.00088961
  5   C            X -0.00757200  0.00134195 -0.06472770  0.00231585  0.00094132
                   Y -0.00275987  0.00206880 -0.05593388  0.00191844  0.00093595
                   Z  0.00125040  0.00067326 -0.00154541  0.00013322 -0.00003955
  6   H            X -0.00129503  0.03391408 -0.00052322  0.00041110  0.00148596
                   Y -0.00504003  0.18950779  0.00855585 -0.00089321  0.00289378
                   Z -0.01927638  0.74397269  0.03561332 -0.00624677  0.01004723
  7   H            X -0.00193942  0.22633470 -0.00273879  0.00108185  0.00664700
                   Y  0.00215210 -0.42795360  0.00037557 -0.00318653 -0.01855773
                   Z -0.00073923  0.25806624  0.00016146  0.00154365  0.00835221
  8   H            X  0.01360699 -0.04082017  0.00607624  0.16287560  0.64700209
                   Y -0.00270461  0.00976127 -0.00149671 -0.03260434 -0.13499528
                   Z  0.00481331 -0.01068719  0.00163076  0.04525504  0.17813385
  9   H            X -0.00007782 -0.00247096 -0.00045657  0.00196543 -0.00504961
                   Y  0.01870940 -0.01347487 -0.01265692 -0.07134715 -0.34149022
                   Z -0.02744499  0.01577740  0.01804430  0.10088417  0.50941168
 10   H            X  0.02293193 -0.00320986 -0.00747337 -0.19005619  0.04693323
                   Y -0.01900325  0.00317361  0.00733840  0.17980900 -0.04333036
                   Z  0.05985898 -0.00884142 -0.02162903 -0.53299180  0.13919978
 11   H            X  0.00404691 -0.00012620  0.00140112  0.06642983 -0.01292141
                   Y  0.04590160  0.00196953  0.01452417  0.69625842 -0.14803604
                   Z -0.00323714  0.00037521 -0.00160866 -0.04363840  0.00932951
 12   H            X -0.53813157 -0.01320953  0.05334848 -0.00677077 -0.00460976
                   Y  0.10891560  0.00258226 -0.01376315  0.00243407  0.00111519
                   Z  0.76644849  0.01818354 -0.07631749  0.00941540  0.00717707
 13   H            X  0.07678117 -0.02087578  0.72454189 -0.02201292 -0.00904830
                   Y  0.06226434 -0.01866058  0.60532195 -0.01791196 -0.00797586
                   Z  0.00311044  0.00079961  0.01793595 -0.00013597 -0.00076902
 14   BR           X  0.00018390  0.00001034 -0.00002238 -0.00004989  0.00001724
                   Y -0.00016434 -0.00000497  0.00013317  0.00000634 -0.00001503
                   Z  0.00029551 -0.00000187 -0.00003100 -0.00003764  0.00001979
 15   BR           X  0.00000132  0.00000231 -0.00003138  0.00000019 -0.00000016
                   Y -0.00000744 -0.00000403  0.00002964  0.00000013  0.00000036
                   Z -0.00000543  0.00000394 -0.00004149 -0.00000049  0.00000092

 TRANS. SAYVETZ    X -0.00000017 -0.00000003 -0.00000018  0.00000005 -0.00000001
                   Y  0.00000004 -0.00000003 -0.00000016 -0.00000010 -0.00000010
                   Z  0.00000024  0.00000025  0.00000033 -0.00000014  0.00000008
               TOTAL  0.00000030  0.00000026  0.00000041  0.00000018  0.00000013

   ROT. SAYVETZ    X  0.00897132  0.00025574 -0.00181230  0.00012586  0.00012386
                   Y  0.01736138  0.00038243 -0.00161879  0.00031654  0.00021309
                   Z  0.00355712  0.00006246  0.00022769  0.00016082  0.00004602
               TOTAL  0.01986341  0.00046429  0.00244065  0.00037670  0.00025073

 REFERENCE ON SAYVETZ CONDITIONS - A. SAYVETZ, J.CHEM.PHYS., 7, 383-389(1939).

 NOTE - THE MODES J,K ARE ORTHONORMALIZED ACCORDING TO
 SUM ON I   M(I) * (X(I,J)*X(I,K) + Y(I,J)*Y(I,K) + Z(I,J)*Z(I,K)) = DELTA(J,K)

  MODE FREQ(CM**-1)  SYMMETRY  RED. MASS  IR INTENS.
     1     191.166    A        7.294034    1.775589
     2     120.480    A        5.346618    0.126821
     3      53.360    A       14.226231    1.509689
     4       0.256    A       15.057429    0.000000
     5       0.258    A       15.051374    0.000000
     6       0.376    A       15.061608    0.000000
     7      21.155    A        4.201715    0.036880
     8      58.883    A       16.508142    0.070212
     9      72.857    A       17.221781    0.086632
    10     107.784    A        4.283228    0.791050
    11     165.505    A        2.185348    0.028775
    12     267.530    A        2.459694    1.370315
    13     351.584    A        2.414906    0.673316
    14     720.100    A        1.903313    0.202626
    15     787.238    A        1.200490    0.319490
    16     796.869    A        3.519543    0.206729
    17     867.896    A        4.705825    0.149292
    18     957.822    A        1.632106    0.014705
    19    1038.428    A        1.651860    0.092940
    20    1061.779    A        3.264056    0.358060
    21    1084.372    A        1.958645    0.295533
    22    1103.610    A        1.982625    0.012624
    23    1229.612    A        1.375658    0.166455
    24    1243.743    A        1.445409    0.169093
    25    1267.083    A        1.325162    0.073265
    26    1345.159    A        1.129823    0.086420
    27    1422.238    A        1.271561    1.222547
    28    1460.888    A        1.311938    0.157056
    29    1463.198    A        1.229565    0.231152
    30    1534.013    A        1.344301    0.166876
    31    1587.057    A        2.541126    1.414387
    32    1590.390    A        1.887909    2.213390
    33    1638.306    A        1.598980    1.211051
    34    1658.696    A        1.941192    3.174049
    35    1781.965    A        1.089894    0.204692
    36    1798.963    A        1.100521    0.026365
    37    1819.908    A        1.120339    0.082044
    38    3570.864    A        1.066661    0.036191
    39    3623.353    A        1.066871    0.005620
    40    3634.791    A        1.068903    0.001364
    41    3662.631    A        1.093899    0.599834
    42    3677.497    A        1.106946    0.173900
    43    3721.306    A        1.098053   10.034032
    44    3744.049    A        1.113385    0.004773
    45    3752.505    A        1.111586    0.005119

     -------------------------------
     THERMOCHEMISTRY AT T=  298.15 K
     -------------------------------

 USING IDEAL GAS, RIGID ROTOR, HARMONIC NORMAL MODE APPROXIMATIONS.
 P=  1.01325E+05 PASCAL.
 ALL FREQUENCIES ARE SCALED BY   1.00000
 THE MOMENTS OF INERTIA ARE (IN AMU*BOHR**2)
            480.73107          4002.75555          4124.68673
 THE ROTATIONAL SYMMETRY NUMBER IS  1.0
 THE ROTATIONAL CONSTANTS ARE (IN GHZ)
      3.75072     0.45046     0.43715
   2 IMAGINARY FREQUENCY VIBRATION(S) IS(ARE) EXCLUDED
     FROM THE FOLLOWING THERMOCHEMICAL ANALYSIS.
      9 -     45 VIBRATIONAL MODES ARE USED IN THERMOCHEMISTRY.
 THE HARMONIC ZERO POINT ENERGY IS (SCALED BY   1.000)
        0.140362 HARTREE/MOLECULE    30805.795275 CM**-1/MOLECULE 
       88.078277 KCAL/MOL              368.519511 KJ/MOL

               Q               LN Q
 ELEC.     1.00000E+00       0.000000
 TRANS.    1.33452E+08      18.709254
 ROT.      1.00848E+06      13.823955
 VIB.      2.93218E+01       3.378331
 TOT.      3.94624E+15      35.911540

              E         H         G         CV        CP        S
           KJ/MOL    KJ/MOL    KJ/MOL   J/MOL-K   J/MOL-K   J/MOL-K
 ELEC.      0.000     0.000     0.000     0.000     0.000     0.000
 TRANS.     3.718     6.197   -46.379    12.472    20.786   176.342
 ROT.       3.718     3.718   -34.269    12.472    12.472   127.410
 VIB.     377.757   377.757   360.145    61.410    61.410    59.073
 TOTAL    385.194   387.673   279.497    86.354    94.668   362.825
 VIB. THERMAL CORRECTION E(T)-E(0) = H(T)-H(0) =      9237.986 J/MOL

              E         H         G         CV        CP        S
         KCAL/MOL  KCAL/MOL  KCAL/MOL CAL/MOL-K CAL/MOL-K CAL/MOL-K
 ELEC.      0.000     0.000     0.000     0.000     0.000     0.000
 TRANS.     0.889     1.481   -11.085     2.981     4.968    42.147
 ROT.       0.889     0.889    -8.190     2.981     2.981    30.452
 VIB.      90.286    90.286    86.077    14.677    14.677    14.119
 TOTAL     92.064    92.656    66.801    20.639    22.626    86.717
 VIB. THERMAL CORRECTION E(T)-E(0) = H(T)-H(0) =      2207.932 CAL/MOL

     *******************************************************
     * THIS IS NOT A STATIONARY POINT ON THE MOLECULAR PES *
     *     THE VIBRATIONAL ANALYSIS IS NOT VALID !!!       *
     *******************************************************
 ......END OF NORMAL COORDINATE ANALYSIS......
 STEP CPU TIME =     0.01 TOTAL CPU TIME =        283.6 (      4.7 MIN)
 TOTAL WALL CLOCK TIME=        285.8 SECONDS, CPU UTILIZATION IS    99.24%
               992079  WORDS OF DYNAMIC MEMORY USED
 EXECUTION OF GAMESS TERMINATED NORMALLY Sun Nov 14 16:36:40 2021
 DDI: 263640 bytes (0.3 MB / 0 MWords) used by master data server.

 ----------------------------------------
 CPU timing information for all processes
 ========================================
 0: 277.216 + 6.400 = 283.617
 ----------------------------------------
 ddikick.x: exited gracefully.
----- accounting info -----
Files used on the master node chemcompute-node-0.novalocal were:
-rw-r--r--. 1 chemcomp chemcomp     1122 Nov 14 16:31 /scratch/306481/342492.F05
-rw-rw-r--. 1 chemcomp chemcomp 16381456 Nov 14 16:36 /scratch/306481/342492.F08
-rw-rw-r--. 1 chemcomp chemcomp 85196800 Nov 14 16:36 /scratch/306481/342492.F10
-rw-rw-r--. 1 chemcomp chemcomp   920520 Nov 14 16:36 /scratch/306481/342492.F18
Sun Nov 14 16:36:44 UTC 2021
0.151u 0.132s 4:49.76 0.0%	0+0k 8+216io 0pf+0w
Finishing Up...
Looking for IR data...
Looking for Raman data...
vibramans not found
Looking for thermodynamics data...
Looking for UV-Vis data...
306481
